Great Red Oystrich Makes All Chemists Sane
70010
    1ETHO    O1    1  14.002  22.984  14.365
    1ETHO   HO1    2  14.076  22.924  14.372
    1ETHO    C1    3  14.013  23.055  14.245
    1ETHO   H11    4  14.116  23.093  14.227
    1ETHO   H13    5  13.947  23.144  14.239
    1ETHO    C2    6  13.978  22.971  14.121
    1ETHO   H21    7  14.015  22.866  14.119
    1ETHO   H23    8  14.012  23.014  14.024
    2ETHO    O1    9  13.835  22.968  14.105
    2ETHO    C1   10  13.787  22.853  14.044
    2ETHO   H11   11  13.823  22.756  14.085
    2ETHO   H13   12  13.679  22.833  14.060
    2ETHO    C2   13  13.809  22.863  13.887
    2ETHO   H21   14  13.780  22.967  13.861
    2ETHO   H23   15  13.733  22.797  13.840
    3ETHO    O1   16  13.934  22.819  13.839
    3ETHO    C1   17  13.943  22.860  13.706
    3ETHO   H11   18  13.946  22.971  13.699
    3ETHO   H13   19  13.850  22.837  13.650
    3ETHO    C2   20  14.064  22.810  13.628
    3ETHO   H21   21  14.164  22.818  13.675
    3ETHO   H23   22  14.074  22.859  13.529
    4ETHO    O1   23  14.047  22.672  13.607
    4ETHO    C1   24  14.127  22.636  13.494
    4ETHO   H11   25  14.101  22.695  13.404
    4ETHO   H13   26  14.236  22.654  13.502
    4ETHO    C2   27  14.102  22.486  13.442
    4ETHO   H21   28  14.148  22.481  13.341
    4ETHO   H23   29  13.992  22.469  13.443
    5ETHO    O1   30  14.174  22.404  13.531
    5ETHO    C1   31  14.200  22.279  13.470
    5ETHO   H11   32  14.115  22.223  13.426
    5ETHO   H13   33  14.275  22.288  13.388
    5ETHO    C2   34  14.256  22.169  13.569
    5ETHO   H21   35  14.173  22.162  13.644
    5ETHO   H23   36  14.345  22.197  13.629
    6ETHO    O1   37  14.259  22.054  13.495
    6ETHO    C1   38  14.379  22.019  13.417
    6ETHO   H11   39  14.409  22.105  13.355
    6ETHO   H13   40  14.460  22.001  13.491
    6ETHO    C2   41  14.374  21.896  13.322
    6ETHO   H21   42  14.321  21.813  13.375
    6ETHO   H23   43  14.478  21.862  13.305
    7ETHO    O1   44  14.311  21.928  13.197
    7ETHO    C1   45  14.169  21.925  13.215
    7ETHO   H11   46  14.142  21.823  13.248
    7ETHO   H13   47  14.139  21.998  13.293
    7ETHO    C2   48  14.097  21.957  13.075
    7ETHO   H21   49  14.147  22.046  13.031
    7ETHO   H23   50  13.997  21.998  13.101
    8ETHO    O1   51  14.097  21.841  12.988
    8ETHO    C1   52  14.088  21.882  12.851
    8ETHO   H11   53  14.185  21.929  12.825
    8ETHO   H13   54  14.013  21.963  12.835
    8ETHO    C2   55  14.041  21.768  12.766
    8ETHO   H21   56  14.114  21.685  12.774
    8ETHO   H23   57  14.057  21.788  12.658
    9ETHO    O1   58  13.908  21.733  12.774
    9ETHO    C1   59  13.877  21.661  12.656
    9ETHO   H11   60  13.829  21.723  12.577
    9ETHO   H13   61  13.960  21.609  12.604
    9ETHO    C2   62  13.764  21.561  12.703
    9ETHO   H21   63  13.666  21.611  12.715
    9ETHO   H23   64  13.791  21.507  12.796
   10ETHO    O1   65  13.739  21.455  12.609
   10ETHO    C1   66  13.642  21.373  12.662
   10ETHO   H11   67  13.560  21.423  12.717
   10ETHO   H13   68  13.685  21.310  12.743
   10ETHO    C2   69  13.586  21.281  12.558
   10ETHO   H21   70  13.553  21.331  12.464
   10ETHO   H23   71  13.488  21.243  12.594
   11ETHO    O1   72  13.669  21.164  12.535
   11ETHO    C1   73  13.634  21.087  12.424
   11ETHO   H11   74  13.534  21.038  12.433
   11ETHO   H13   75  13.633  21.153  12.335
   11ETHO    C2   76  13.737  20.973  12.417
   11ETHO   H21   77  13.730  20.924  12.317
   11ETHO   H23   78  13.835  21.018  12.443
   12ETHO    O1   79  13.706  20.878  12.517
   12ETHO    C1   80  13.794  20.770  12.513
   12ETHO   H11   81  13.820  20.750  12.407
   12ETHO   H13   82  13.746  20.681  12.559
   12ETHO    C2   83  13.923  20.809  12.588
   12ETHO   H21   84  13.963  20.906  12.552
   12ETHO   H23   85  14.007  20.743  12.558
   13ETHO    O1   86  13.899  20.801  12.729
   13ETHO    C1   87  14.021  20.780  12.801
   13ETHO   H11   88  14.105  20.842  12.763
   13ETHO   H13   89  13.998  20.794  12.909
   13ETHO    C2   90  14.065  20.631  12.789
   13ETHO   H21   91  13.982  20.559  12.771
   13ETHO   H23   92  14.114  20.609  12.886
   14ETHO    O1   93  14.165  20.614  12.686
   14ETHO    C1   94  14.193  20.477  12.664
   14ETHO   H11   95  14.288  20.465  12.608
   14ETHO   H13   96  14.110  20.435  12.604
   14ETHO    C2   97  14.225  20.383  12.785
   14ETHO   H21   98  14.209  20.274  12.770
   14ETHO   H23   99  14.176  20.407  12.881
   15ETHO    O1  100  14.370  20.393  12.801
   15ETHO    C1  101  14.420  20.294  12.895
   15ETHO   H11  102  14.515  20.330  12.939
   15ETHO   H13  103  14.354  20.284  12.984
   15ETHO    C2  104  14.445  20.152  12.834
   15ETHO   H21  105  14.506  20.160  12.742
   15ETHO   H23  106  14.498  20.085  12.904
   16ETHO    O1  107  14.331  20.069  12.792
   16ETHO    C1  108  14.276  19.996  12.899
   16ETHO   H11  109  14.320  19.894  12.906
   16ETHO   H13  110  14.297  20.045  12.996
   16ETHO    C2  111  14.122  19.979  12.888
   16ETHO   H21  112  14.088  19.929  12.981
   16ETHO   H23  113  14.101  19.918  12.798
   17ETHO    O1  114  14.063  20.108  12.885
   17ETHO    C1  115  13.931  20.093  12.831
   17ETHO   H11  116  13.941  20.062  12.725
   17ETHO   H13  117  13.879  20.008  12.881
   17ETHO    C2  118  13.845  20.217  12.852
   17ETHO   H21  119  13.866  20.250  12.957
   17ETHO   H23  120  13.736  20.199  12.851
   18ETHO    O1  121  13.869  20.323  12.756
   18ETHO    C1  122  13.831  20.285  12.628
   18ETHO   H11  123  13.914  20.224  12.588
   18ETHO   H13  124  13.728  20.242  12.625
   18ETHO    C2  125  13.822  20.409  12.544
   18ETHO   H21  126  13.913  20.472  12.533
   18ETHO   H23  127  13.742  20.467  12.595
   19ETHO    O1  128  13.796  20.378  12.407
   19ETHO    C1  129  13.654  20.371  12.377
   19ETHO   H11  130  13.605  20.469  12.393
   19ETHO   H13  131  13.616  20.289  12.441
   19ETHO    C2  132  13.629  20.343  12.225
   19ETHO   H21  133  13.525  20.305  12.221
   19ETHO   H23  134  13.699  20.264  12.190
   20ETHO    O1  135  13.647  20.459  12.142
   20ETHO    C1  136  13.667  20.426  12.005
   20ETHO   H11  137  13.737  20.341  11.996
   20ETHO   H13  138  13.567  20.399  11.965
   20ETHO    C2  139  13.721  20.548  11.931
   20ETHO   H21  140  13.661  20.641  11.945
   20ETHO   H23  141  13.721  20.520  11.824
   21ETHO    O1  142  13.855  20.579  11.962
   21ETHO    C1  143  13.908  20.674  11.876
   21ETHO   H11  144  13.888  20.654  11.769
   21ETHO   H13  145  14.017  20.661  11.866
   21ETHO    C2  146  13.870  20.814  11.926
   21ETHO   H21  147  13.940  20.890  11.885
   21ETHO   H23  148  13.871  20.822  12.037
   22ETHO    O1  149  13.739  20.847  11.873
   22ETHO    C1  150  13.661  20.941  11.951
   22ETHO   H11  151  13.563  20.947  11.899
   22ETHO   H13  152  13.646  20.916  12.058
   22ETHO    C2  153  13.715  21.080  11.934
   22ETHO   H21  154  13.796  21.098  12.007
   22ETHO   H23  155  13.748  21.094  11.829
   23ETHO    O1  156  13.613  21.186  11.954
   23ETHO    C1  157  13.654  21.297  12.032
   23ETHO   H11  158  13.722  21.361  11.973
   23ETHO   H13  159  13.714  21.265  12.120
   23ETHO    C2  160  13.530  21.378  12.069
   23ETHO   H21  161  13.483  21.430  11.983
   23ETHO   H23  162  13.574  21.461  12.129
   24ETHO    O1  163  13.440  21.310  12.159
   24ETHO    C1  164  13.344  21.400  12.204
   24ETHO   H11  165  13.382  21.467  12.284
   24ETHO   H13  166  13.297  21.454  12.119
   24ETHO    C2  167  13.227  21.317  12.266
   24ETHO   H21  168  13.211  21.236  12.191
   24ETHO   H23  169  13.142  21.385  12.283
   25ETHO    O1  170  13.268  21.256  12.391
   25ETHO    C1  171  13.165  21.199  12.470
   25ETHO   H11  172  13.075  21.264  12.470
   25ETHO   H13  173  13.206  21.178  12.572
   25ETHO    C2  174  13.102  21.070  12.419
   25ETHO   H21  175  13.059  21.080  12.317
   25ETHO   H23  176  13.017  21.049  12.488
   26ETHO    O1  177  13.188  20.960  12.422
   26ETHO    C1  178  13.278  20.939  12.318
   26ETHO   H11  179  13.213  20.915  12.231
   26ETHO   H13  180  13.322  21.040  12.302
   26ETHO    C2  181  13.376  20.823  12.337
   26ETHO   H21  182  13.405  20.825  12.444
   26ETHO   H23  183  13.466  20.828  12.271
   27ETHO    O1  184  13.308  20.700  12.321
   27ETHO    C1  185  13.271  20.654  12.450
   27ETHO   H11  186  13.209  20.723  12.511
   27ETHO   H13  187  13.367  20.630  12.499
   27ETHO    C2  188  13.177  20.527  12.429
   27ETHO   H21  189  13.085  20.540  12.368
   27ETHO   H23  190  13.139  20.511  12.533
   28ETHO    O1  191  13.265  20.411  12.414
   28ETHO    C1  192  13.190  20.293  12.430
   28ETHO   H11  193  13.132  20.289  12.524
   28ETHO   H13  194  13.117  20.283  12.346
   28ETHO    C2  195  13.299  20.178  12.436
   28ETHO   H21  196  13.263  20.086  12.486
   28ETHO   H23  197  13.384  20.215  12.497
   29ETHO    O1  198  13.347  20.143  12.309
   29ETHO    C1  199  13.425  20.025  12.314
   29ETHO   H11  200  13.491  20.025  12.403
   29ETHO   H13  201  13.493  20.018  12.227
   29ETHO    C2  202  13.332  19.900  12.309
   29ETHO   H21  203  13.377  19.817  12.252
   29ETHO   H23  204  13.236  19.934  12.263
   30ETHO    O1  205  13.298  19.838  12.431
   30ETHO    C1  206  13.201  19.739  12.405
   30ETHO   H11  207  13.105  19.794  12.394
   30ETHO   H13  208  13.212  19.673  12.316
   30ETHO    C2  209  13.181  19.637  12.518
   30ETHO   H21  210  13.080  19.596  12.495
   30ETHO   H23  211  13.190  19.670  12.623
   31ETHO    O1  212  13.280  19.539  12.510
   31ETHO    C1  213  13.240  19.421  12.440
   31ETHO   H11  214  13.190  19.438  12.343
   31ETHO   H13  215  13.336  19.372  12.413
   31ETHO    C2  216  13.161  19.329  12.533
   31ETHO   H21  217  13.202  19.341  12.636
   31ETHO   H23  218  13.185  19.230  12.491
   32ETHO    O1  219  13.019  19.356  12.547
   32ETHO    C1  220  12.963  19.287  12.657
   32ETHO   H11  221  13.015  19.190  12.668
   32ETHO   H13  222  12.969  19.340  12.754
   32ETHO    C2  223  12.817  19.265  12.614
   32ETHO   H21  224  12.762  19.206  12.690
   32ETHO   H23  225  12.813  19.225  12.511
   33ETHO    O1  226  12.744  19.389  12.609
   33ETHO    C1  227  12.618  19.367  12.547
   33ETHO   H11  228  12.622  19.339  12.439
   33ETHO   H13  229  12.572  19.279  12.597
   33ETHO    C2  230  12.531  19.492  12.577
   33ETHO   H21  231  12.531  19.507  12.687
   33ETHO   H23  232  12.431  19.459  12.541
   34ETHO    O1  233  12.574  19.602  12.502
   34ETHO    C1  234  12.537  19.732  12.545
   34ETHO   H11  235  12.601  19.800  12.486
   34ETHO   H13  236  12.556  19.743  12.654
   34ETHO    C2  237  12.388  19.765  12.505
   34ETHO   H21  238  12.345  19.838  12.577
   34ETHO   H23  239  12.324  19.675  12.500
   35ETHO    O1  240  12.379  19.827  12.379
   35ETHO    C1  241  12.242  19.839  12.332
   35ETHO   H11  242  12.203  19.750  12.279
   35ETHO   H13  243  12.177  19.867  12.418
   35ETHO    C2  244  12.228  19.960  12.227
   35ETHO   H21  245  12.136  19.935  12.171
   35ETHO   H23  246  12.312  19.951  12.155
   36ETHO    O1  247  12.242  20.088  12.290
   36ETHO    C1  248  12.195  20.200  12.214
   36ETHO   H11  249  12.227  20.191  12.108
   36ETHO   H13  250  12.248  20.291  12.250
   36ETHO    C2  251  12.046  20.220  12.223
   36ETHO   H21  252  12.002  20.125  12.186
   36ETHO   H23  253  12.007  20.308  12.169
   37ETHO    O1  254  12.007  20.234  12.363
   37ETHO    C1  255  11.869  20.264  12.371
   37ETHO   H11  256  11.857  20.354  12.307
   37ETHO   H13  257  11.799  20.182  12.347
   37ETHO    C2  258  11.823  20.309  12.508
   37ETHO   H21  259  11.907  20.368  12.552
   37ETHO   H23  260  11.811  20.223  12.577
   38ETHO    O1  261  11.717  20.400  12.498
   38ETHO    C1  262  11.662  20.440  12.623
   38ETHO   H11  263  11.733  20.508  12.673
   38ETHO   H13  264  11.652  20.346  12.681
   38ETHO    C2  265  11.519  20.491  12.603
   38ETHO   H21  266  11.466  20.494  12.701
   38ETHO   H23  267  11.468  20.412  12.543
   39ETHO    O1  268  11.529  20.607  12.520
   39ETHO    C1  269  11.567  20.719  12.595
   39ETHO   H11  270  11.518  20.731  12.694
   39ETHO   H13  271  11.677  20.727  12.606
   39ETHO    C2  272  11.533  20.849  12.520
   39ETHO   H21  273  11.558  20.938  12.581
   39ETHO   H23  274  11.423  20.845  12.505
   40ETHO    O1  275  11.594  20.851  12.399
   40ETHO    C1  276  11.580  20.976  12.334
   40ETHO   H11  277  11.601  21.068  12.394
   40ETHO   H13  278  11.472  20.978  12.309
   40ETHO    C2  279  11.669  20.965  12.209
   40ETHO   H21  280  11.647  21.049  12.141
   40ETHO   H23  281  11.659  20.864  12.163
   41ETHO    O1  282  11.810  20.990  12.246
   41ETHO    C1  283  11.892  20.923  12.154
   41ETHO   H11  284  11.896  20.815  12.179
   41ETHO   H13  285  11.864  20.922  12.046
   41ETHO    C2  286  12.038  20.973  12.143
   41ETHO   H21  287  12.097  20.892  12.095
   41ETHO   H23  288  12.083  20.991  12.243
   42ETHO    O1  289  12.068  21.093  12.068
   42ETHO    C1  290  12.208  21.125  12.067
   42ETHO   H11  291  12.247  21.141  12.170
   42ETHO   H13  292  12.258  21.038  12.018
   42ETHO    C2  293  12.225  21.249  11.989
   42ETHO   H21  294  12.333  21.274  11.999
   42ETHO   H23  295  12.160  21.322  12.042
   43ETHO    O1  296  12.187  21.249  11.852
   43ETHO    C1  297  12.208  21.378  11.792
   43ETHO   H11  298  12.146  21.457  11.839
   43ETHO   H13  299  12.315  21.408  11.788
   43ETHO    C2  300  12.171  21.375  11.636
   43ETHO   H21  301  12.169  21.477  11.593
   43ETHO   H23  302  12.072  21.331  11.612
   44ETHO    O1  303  12.272  21.294  11.569
   44ETHO    C1  304  12.238  21.250  11.437
   44ETHO   H11  305  12.245  21.139  11.433
   44ETHO   H13  306  12.133  21.267  11.407
   44ETHO    C2  307  12.345  21.308  11.332
   44ETHO   H21  308  12.361  21.418  11.342
   44ETHO   H23  309  12.311  21.273  11.233
   45ETHO    O1  310  12.475  21.249  11.358
   45ETHO    C1  311  12.566  21.289  11.258
   45ETHO   H11  312  12.565  21.400  11.252
   45ETHO   H13  313  12.516  21.238  11.173
   45ETHO    C2  314  12.707  21.235  11.264
   45ETHO   H21  315  12.762  21.240  11.168
   45ETHO   H23  316  12.705  21.124  11.277
   46ETHO    O1  317  12.792  21.293  11.357
   46ETHO    C1  318  12.781  21.234  11.484
   46ETHO   H11  319  12.676  21.221  11.518
   46ETHO   H13  320  12.828  21.133  11.481
   46ETHO    C2  321  12.850  21.322  11.595
   46ETHO   H21  322  12.817  21.282  11.693
   46ETHO   H23  323  12.816  21.427  11.585
   47ETHO    O1  324  12.988  21.305  11.597
   47ETHO    C1  325  13.053  21.389  11.692
   47ETHO   H11  326  12.991  21.394  11.783
   47ETHO   H13  327  13.067  21.491  11.651
   47ETHO    C2  328  13.192  21.337  11.723
   47ETHO   H21  329  13.249  21.410  11.785
   47ETHO   H23  330  13.256  21.305  11.639
   48ETHO    O1  331  13.178  21.218  11.802
   48ETHO    C1  332  13.301  21.161  11.857
   48ETHO   H11  333  13.380  21.164  11.779
   48ETHO   H13  334  13.331  21.219  11.947
   48ETHO    C2  335  13.275  21.026  11.918
   48ETHO   H21  336  13.357  21.009  11.991
   48ETHO   H23  337  13.175  21.014  11.965
   49ETHO    O1  338  13.278  20.930  11.810
   49ETHO    C1  339  13.231  20.806  11.843
   49ETHO   H11  340  13.218  20.753  11.746
   49ETHO   H13  341  13.128  20.817  11.882
   49ETHO    C2  342  13.313  20.709  11.939
   49ETHO   H21  343  13.308  20.749  12.043
   49ETHO   H23  344  13.423  20.709  11.925
   50ETHO    O1  345  13.267  20.575  11.932
   50ETHO    C1  346  13.264  20.515  12.064
   50ETHO   H11  347  13.365  20.536  12.106
   50ETHO   H13  348  13.182  20.554  12.129
   50ETHO    C2  349  13.238  20.361  12.067
   50ETHO   H21  350  13.278  20.321  12.163
   50ETHO   H23  351  13.290  20.304  11.987
   51ETHO    O1  352  13.103  20.333  12.071
   51ETHO    C1  353  13.069  20.197  12.046
   51ETHO   H11  354  13.143  20.127  12.089
   51ETHO   H13  355  13.072  20.173  11.938
   51ETHO    C2  356  12.936  20.173  12.110
   51ETHO   H21  357  12.905  20.070  12.080
   51ETHO   H23  358  12.859  20.246  12.077
   52ETHO    O1  359  12.959  20.162  12.248
   52ETHO    C1  360  12.873  20.063  12.312
   52ETHO   H11  361  12.768  20.100  12.311
   52ETHO   H13  362  12.887  19.965  12.262
   52ETHO    C2  363  12.913  20.040  12.458
   52ETHO   H21  364  12.891  20.131  12.517
   52ETHO   H23  365  13.022  20.017  12.452
   53ETHO    O1  366  12.859  19.924  12.526
   53ETHO    C1  367  12.925  19.908  12.650
   53ETHO   H11  368  13.032  19.887  12.624
   53ETHO   H13  369  12.917  19.998  12.714
   53ETHO    C2  370  12.873  19.776  12.714
   53ETHO   H21  371  12.951  19.743  12.787
   53ETHO   H23  372  12.858  19.698  12.636
   54ETHO    O1  373  12.756  19.813  12.786
   54ETHO    C1  374  12.696  19.714  12.870
   54ETHO   H11  375  12.594  19.753  12.890
   54ETHO   H13  376  12.690  19.621  12.810
   54ETHO    C2  377  12.763  19.689  13.009
   54ETHO   H21  378  12.862  19.640  12.992
   54ETHO   H23  379  12.717  19.603  13.063
   55ETHO    O1  380  12.763  19.801  13.100
   55ETHO    C1  381  12.871  19.897  13.083
   55ETHO   H11  382  12.972  19.850  13.080
   55ETHO   H13  383  12.856  19.937  12.980
   55ETHO    C2  384  12.847  20.012  13.188
   55ETHO   H21  385  12.914  20.100  13.174
   55ETHO   H23  386  12.742  20.044  13.168
   56ETHO    O1  387  12.876  19.945  13.320
   56ETHO    C1  388  12.840  20.034  13.426
   56ETHO   H11  389  12.730  20.025  13.420
   56ETHO   H13  390  12.875  20.136  13.397
   56ETHO    C2  391  12.903  19.992  13.554
   56ETHO   H21  392  12.880  20.070  13.630
   56ETHO   H23  393  13.014  19.993  13.554
   57ETHO    O1  394  12.874  19.861  13.605
   57ETHO    C1  395  12.865  19.867  13.752
   57ETHO   H11  396  12.874  19.767  13.800
   57ETHO   H13  397  12.940  19.933  13.800
   57ETHO    C2  398  12.731  19.926  13.794
   57ETHO   H21  399  12.708  19.885  13.895
   57ETHO   H23  400  12.656  19.883  13.724
   58ETHO    O1  401  12.712  20.065  13.788
   58ETHO    C1  402  12.577  20.114  13.801
   58ETHO   H11  403  12.529  20.079  13.896
   58ETHO   H13  404  12.520  20.069  13.717
   58ETHO    C2  405  12.570  20.264  13.809
   58ETHO   H21  406  12.608  20.304  13.905
   58ETHO   H23  407  12.464  20.293  13.795
   59ETHO    O1  408  12.652  20.331  13.712
   59ETHO    C1  409  12.595  20.341  13.580
   59ETHO   H11  410  12.586  20.238  13.540
   59ETHO   H13  411  12.489  20.374  13.585
   59ETHO    C2  412  12.686  20.419  13.476
   59ETHO   H21  413  12.794  20.395  13.490
   59ETHO   H23  414  12.683  20.527  13.503
   60ETHO    O1  415  12.647  20.397  13.341
   60ETHO    C1  416  12.747  20.435  13.247
   60ETHO   H11  417  12.744  20.358  13.167
   60ETHO   H13  418  12.850  20.444  13.288
   60ETHO    C2  419  12.699  20.568  13.194
   60ETHO   H21  420  12.611  20.553  13.129
   60ETHO   H23  421  12.788  20.600  13.135
   61ETHO    O1  422  12.673  20.662  13.305
   61ETHO    C1  423  12.784  20.754  13.315
   61ETHO   H11  424  12.868  20.684  13.328
   61ETHO   H13  425  12.807  20.813  13.223
   61ETHO    C2  426  12.770  20.848  13.433
   61ETHO   H21  427  12.857  20.917  13.442
   61ETHO   H23  428  12.777  20.777  13.518
   62ETHO    O1  429  12.650  20.919  13.414
   62ETHO    C1  430  12.632  21.014  13.511
   62ETHO   H11  431  12.722  21.078  13.499
   62ETHO   H13  432  12.628  20.969  13.613
   62ETHO    C2  433  12.507  21.090  13.475
   62ETHO   H21  434  12.466  21.143  13.564
   62ETHO   H23  435  12.423  21.022  13.445
   63ETHO    O1  436  12.526  21.198  13.375
   63ETHO    C1  437  12.395  21.238  13.327
   63ETHO   H11  438  12.337  21.147  13.297
   63ETHO   H13  439  12.335  21.286  13.407
   63ETHO    C2  440  12.408  21.330  13.208
   63ETHO   H21  441  12.461  21.422  13.240
   63ETHO   H23  442  12.310  21.359  13.164
   64ETHO    O1  443  12.480  21.269  13.097
   64ETHO    C1  444  12.544  21.363  13.009
   64ETHO   H11  445  12.635  21.395  13.064
   64ETHO   H13  446  12.480  21.451  12.993
   64ETHO    C2  447  12.573  21.299  12.872
   64ETHO   H21  448  12.634  21.208  12.887
   64ETHO   H23  449  12.633  21.368  12.809
   65ETHO    O1  450  12.455  21.268  12.797
   65ETHO    C1  451  12.475  21.249  12.660
   65ETHO   H11  452  12.528  21.335  12.614
   65ETHO   H13  453  12.551  21.170  12.645
   65ETHO    C2  454  12.345  21.223  12.578
   65ETHO   H21  455  12.366  21.260  12.475
   65ETHO   H23  456  12.266  21.285  12.626
   66ETHO    O1  457  12.305  21.089  12.557
   66ETHO    C1  458  12.180  21.078  12.495
   66ETHO   H11  459  12.200  21.072  12.386
   66ETHO   H13  460  12.112  21.164  12.512
   66ETHO    C2  461  12.108  20.947  12.536
   66ETHO   H21  462  12.003  20.957  12.503
   66ETHO   H23  463  12.104  20.944  12.646
   67ETHO    O1  464  12.162  20.830  12.481
   67ETHO    C1  465  12.098  20.717  12.539
   67ETHO   H11  466  12.088  20.733  12.648
   67ETHO   H13  467  11.994  20.708  12.500
   67ETHO    C2  468  12.158  20.576  12.492
   67ETHO   H21  469  12.221  20.595  12.403
   67ETHO   H23  470  12.081  20.499  12.468
   68ETHO    O1  471  12.234  20.513  12.596
   68ETHO    C1  472  12.285  20.388  12.547
   68ETHO   H11  473  12.198  20.326  12.517
   68ETHO   H13  474  12.356  20.420  12.468
   68ETHO    C2  475  12.358  20.302  12.658
   68ETHO   H21  476  12.436  20.357  12.716
   68ETHO   H23  477  12.410  20.221  12.604
   69ETHO    O1  478  12.267  20.258  12.759
   69ETHO    C1  479  12.243  20.358  12.865
   69ETHO   H11  480  12.331  20.424  12.885
   69ETHO   H13  481  12.158  20.418  12.826
   69ETHO    C2  482  12.206  20.291  13.000
   69ETHO   H21  483  12.124  20.220  12.974
   69ETHO   H23  484  12.173  20.361  13.079
   70ETHO    O1  485  12.314  20.211  13.053
   70ETHO    C1  486  12.275  20.174  13.184
   70ETHO   H11  487  12.274  20.261  13.254
   70ETHO   H13  488  12.183  20.113  13.197
   70ETHO    C2  489  12.391  20.071  13.230
   70ETHO   H21  490  12.371  20.060  13.339
   70ETHO   H23  491  12.489  20.122  13.221
   71ETHO    O1  492  12.392  19.946  13.167
   71ETHO    C1  493  12.470  19.852  13.233
   71ETHO   H11  494  12.562  19.905  13.267
   71ETHO   H13  495  12.496  19.770  13.162
   71ETHO    C2  496  12.385  19.782  13.344
   71ETHO   H21  497  12.356  19.865  13.413
   71ETHO   H23  498  12.461  19.725  13.402
   72ETHO    O1  499  12.271  19.703  13.302
   72ETHO    C1  500  12.208  19.634  13.404
   72ETHO   H11  501  12.287  19.589  13.468
   72ETHO   H13  502  12.150  19.708  13.464
   72ETHO    C2  503  12.131  19.527  13.334
   72ETHO   H21  504  12.068  19.554  13.247
   72ETHO   H23  505  12.057  19.485  13.405
   73ETHO    O1  506  12.202  19.408  13.303
   73ETHO    C1  507  12.115  19.307  13.243
   73ETHO   H11  508  12.052  19.347  13.160
   73ETHO   H13  509  12.041  19.272  13.318
   73ETHO    C2  510  12.204  19.187  13.195
   73ETHO   H21  511  12.145  19.100  13.158
   73ETHO   H23  512  12.263  19.152  13.282
   74ETHO    O1  513  12.292  19.245  13.101
   74ETHO    C1  514  12.257  19.223  12.960
   74ETHO   H11  515  12.278  19.115  12.944
   74ETHO   H13  516  12.150  19.247  12.942
   74ETHO    C2  517  12.364  19.294  12.862
   74ETHO   H21  518  12.367  19.224  12.776
   74ETHO   H23  519  12.466  19.295  12.907
   75ETHO    O1  520  12.336  19.428  12.818
   75ETHO    C1  521  12.335  19.521  12.929
   75ETHO   H11  522  12.423  19.502  12.995
   75ETHO   H13  523  12.242  19.499  12.985
   75ETHO    C2  524  12.319  19.658  12.868
   75ETHO   H21  525  12.375  19.680  12.775
   75ETHO   H23  526  12.356  19.729  12.945
   76ETHO    O1  527  12.190  19.709  12.845
   76ETHO    C1  528  12.111  19.719  12.964
   76ETHO   H11  529  12.088  19.618  13.006
   76ETHO   H13  530  12.160  19.785  13.039
   76ETHO    C2  531  11.972  19.781  12.919
   76ETHO   H21  532  11.981  19.881  12.870
   76ETHO   H23  533  11.914  19.800  13.012
   77ETHO    O1  534  11.901  19.688  12.829
   77ETHO    C1  535  11.770  19.740  12.814
   77ETHO   H11  536  11.732  19.766  12.915
   77ETHO   H13  537  11.708  19.652  12.788
   77ETHO    C2  538  11.747  19.869  12.730
   77ETHO   H21  539  11.780  19.860  12.624
   77ETHO   H23  540  11.803  19.951  12.780
   78ETHO    O1  541  11.605  19.888  12.735
   78ETHO    C1  542  11.569  20.005  12.659
   78ETHO   H11  543  11.643  20.088  12.663
   78ETHO   H13  544  11.557  19.979  12.552
   78ETHO    C2  545  11.439  20.071  12.726
   78ETHO   H21  546  11.376  19.998  12.780
   78ETHO   H23  547  11.378  20.108  12.640
   79ETHO    O1  548  11.463  20.182  12.817
   79ETHO    C1  549  11.527  20.142  12.936
   79ETHO   H11  550  11.484  20.041  12.956
   79ETHO   H13  551  11.636  20.124  12.928
   79ETHO    C2  552  11.496  20.247  13.040
   79ETHO   H21  553  11.494  20.349  12.996
   79ETHO   H23  554  11.567  20.236  13.125
   80ETHO    O1  555  11.367  20.227  13.100
   80ETHO    C1  556  11.326  20.324  13.203
   80ETHO   H11  557  11.341  20.426  13.160
   80ETHO   H13  558  11.217  20.307  13.211
   80ETHO    C2  559  11.401  20.310  13.343
   80ETHO   H21  560  11.406  20.203  13.370
   80ETHO   H23  561  11.350  20.355  13.431
   81ETHO    O1  562  11.535  20.355  13.338
   81ETHO    C1  563  11.546  20.490  13.374
   81ETHO   H11  564  11.482  20.546  13.302
   81ETHO   H13  565  11.517  20.511  13.479
   81ETHO    C2  566  11.689  20.530  13.353
   81ETHO   H21  567  11.721  20.502  13.250
   81ETHO   H23  568  11.681  20.641  13.358
   82ETHO    O1  569  11.790  20.480  13.443
   82ETHO    C1  570  11.917  20.543  13.415
   82ETHO   H11  571  11.935  20.645  13.456
   82ETHO   H13  572  11.933  20.555  13.306
   82ETHO    C2  573  12.039  20.462  13.470
   82ETHO   H21  574  12.129  20.494  13.412
   82ETHO   H23  575  12.008  20.358  13.443
   83ETHO    O1  576  12.063  20.482  13.610
   83ETHO    C1  577  12.190  20.442  13.654
   83ETHO   H11  578  12.196  20.335  13.624
   83ETHO   H13  579  12.256  20.513  13.600
   83ETHO    C2  580  12.195  20.466  13.810
   83ETHO   H21  581  12.268  20.390  13.846
   83ETHO   H23  582  12.101  20.442  13.863
   84ETHO    O1  583  12.251  20.593  13.833
   84ETHO    C1  584  12.261  20.630  13.968
   84ETHO   H11  585  12.301  20.550  14.034
   84ETHO   H13  586  12.163  20.662  14.008
   84ETHO    C2  587  12.367  20.742  13.989
   84ETHO   H21  588  12.349  20.791  14.087
   84ETHO   H23  589  12.365  20.805  13.897
   85ETHO    O1  590  12.499  20.679  13.992
   85ETHO    C1  591  12.566  20.668  13.865
   85ETHO   H11  592  12.511  20.621  13.780
   85ETHO   H13  593  12.576  20.773  13.828
   85ETHO    C2  594  12.713  20.619  13.888
   85ETHO   H21  595  12.708  20.509  13.898
   85ETHO   H23  596  12.771  20.671  13.966
   86ETHO    O1  597  12.792  20.635  13.765
   86ETHO    C1  598  12.925  20.586  13.787
   86ETHO   H11  599  12.923  20.475  13.798
   86ETHO   H13  600  12.968  20.634  13.877
   86ETHO    C2  601  13.022  20.618  13.669
   86ETHO   H21  602  13.127  20.640  13.698
   86ETHO   H23  603  12.982  20.718  13.640
   87ETHO    O1  604  13.019  20.512  13.570
   87ETHO    C1  605  13.111  20.519  13.465
   87ETHO   H11  606  13.076  20.587  13.385
   87ETHO   H13  607  13.201  20.574  13.500
   87ETHO    C2  608  13.139  20.394  13.394
   87ETHO   H21  609  13.211  20.408  13.311
   87ETHO   H23  610  13.054  20.344  13.343
   88ETHO    O1  611  13.201  20.303  13.477
   88ETHO    C1  612  13.254  20.186  13.407
   88ETHO   H11  613  13.330  20.219  13.333
   88ETHO   H13  614  13.175  20.132  13.350
   88ETHO    C2  615  13.332  20.090  13.506
   88ETHO   H21  616  13.421  20.146  13.543
   88ETHO   H23  617  13.374  20.010  13.442
   89ETHO    O1  618  13.259  20.048  13.614
   89ETHO    C1  619  13.319  19.948  13.688
   89ETHO   H11  620  13.426  19.942  13.660
   89ETHO   H13  621  13.317  19.975  13.796
   89ETHO    C2  622  13.251  19.820  13.646
   89ETHO   H21  623  13.252  19.816  13.535
   89ETHO   H23  624  13.142  19.818  13.663
   90ETHO    O1  625  13.307  19.701  13.690
   90ETHO    C1  626  13.307  19.592  13.597
   90ETHO   H11  627  13.342  19.632  13.499
   90ETHO   H13  628  13.383  19.516  13.625
   90ETHO    C2  629  13.173  19.529  13.585
   90ETHO   H21  630  13.103  19.590  13.525
   90ETHO   H23  631  13.134  19.503  13.686
   91ETHO    O1  632  13.177  19.401  13.523
   91ETHO    C1  633  13.050  19.340  13.524
   91ETHO   H11  634  13.024  19.324  13.631
   91ETHO   H13  635  12.976  19.411  13.480
   91ETHO    C2  636  13.052  19.204  13.461
   91ETHO   H21  637  13.085  19.218  13.356
   91ETHO   H23  638  12.951  19.158  13.465
   92ETHO    O1  639  13.144  19.111  13.518
   92ETHO    C1  640  13.128  18.982  13.459
   92ETHO   H11  641  13.019  18.959  13.463
   92ETHO   H13  642  13.141  18.988  13.349
   92ETHO    C2  643  13.215  18.862  13.507
   92ETHO   H21  644  13.321  18.895  13.496
   92ETHO   H23  645  13.200  18.771  13.445
   93ETHO    O1  646  13.183  18.825  13.641
   93ETHO    C1  647  13.267  18.728  13.702
   93ETHO   H11  648  13.343  18.794  13.750
   93ETHO   H13  649  13.312  18.659  13.627
   93ETHO    C2  650  13.186  18.654  13.810
   93ETHO   H21  651  13.122  18.734  13.854
   93ETHO   H23  652  13.262  18.623  13.884
   94ETHO    O1  653  13.107  18.540  13.771
   94ETHO    C1  654  12.989  18.582  13.696
   94ETHO   H11  655  12.923  18.634  13.769
   94ETHO   H13  656  13.009  18.650  13.611
   94ETHO    C2  657  12.906  18.454  13.663
   94ETHO   H21  658  12.811  18.488  13.617
   94ETHO   H23  659  12.884  18.409  13.761
   95ETHO    O1  660  12.974  18.371  13.572
   95ETHO    C1  661  12.898  18.257  13.528
   95ETHO   H11  662  12.790  18.264  13.557
   95ETHO   H13  663  12.928  18.166  13.584
   95ETHO    C2  664  12.891  18.234  13.380
   95ETHO   H21  665  12.870  18.127  13.357
   95ETHO   H23  666  12.995  18.248  13.344
   96ETHO    O1  667  12.800  18.314  13.302
   96ETHO    C1  668  12.828  18.313  13.156
   96ETHO   H11  669  12.759  18.383  13.106
   96ETHO   H13  670  12.935  18.341  13.144
   96ETHO    C2  671  12.796  18.172  13.094
   96ETHO   H21  672  12.860  18.096  13.144
   96ETHO   H23  673  12.812  18.197  12.987
   97ETHO    O1  674  12.662  18.131  13.111
   97ETHO    C1  675  12.624  18.035  13.015
   97ETHO   H11  676  12.694  17.951  13.032
   97ETHO   H13  677  12.634  18.084  12.916
   97ETHO    C2  678  12.480  17.974  13.025
   97ETHO   H21  679  12.485  17.900  12.942
   97ETHO   H23  680  12.409  18.057  13.005
   98ETHO    O1  681  12.450  17.905  13.145
   98ETHO    C1  682  12.314  17.873  13.148
   98ETHO   H11  683  12.288  17.867  13.256
   98ETHO   H13  684  12.255  17.958  13.106
   98ETHO    C2  685  12.294  17.737  13.077
   98ETHO   H21  686  12.194  17.693  13.098
   98ETHO   H23  687  12.369  17.675  13.131
   99ETHO    O1  688  12.318  17.758  12.942
   99ETHO    C1  689  12.273  17.650  12.855
   99ETHO   H11  690  12.300  17.685  12.753
   99ETHO   H13  691  12.163  17.661  12.864
   99ETHO    C2  692  12.334  17.512  12.871
   99ETHO   H21  693  12.267  17.438  12.822
   99ETHO   H23  694  12.360  17.487  12.976
  100ETHO    O1  695  12.451  17.513  12.796
  100ETHO    C1  696  12.525  17.395  12.816
  100ETHO   H11  697  12.561  17.400  12.921
  100ETHO   H13  698  12.452  17.312  12.820
  100ETHO    C2  699  12.636  17.370  12.717
  100ETHO   H21  700  12.720  17.443  12.725
  100ETHO   H23  701  12.583  17.389  12.622
  101PROX    O1  702  12.680  17.236  12.730
  101PROX    C1  703  12.734  17.184  12.609
  101PROX   H11  704  12.651  17.141  12.548
  101PROX   H13  705  12.785  17.265  12.554
  101PROX    C2  706  12.843  17.072  12.639
  101PROX   H21  707  12.799  16.993  12.704
  101PROX    C3  708  12.975  17.142  12.689
  101PROX   H31  709  12.947  17.206  12.775
  101PROX   H32  710  13.050  17.071  12.728
  101PROX   H33  711  13.023  17.210  12.615
  102PROX    O1  712  12.872  17.016  12.510
  102PROX    C1  713  12.913  16.883  12.516
  102PROX   H11  714  12.985  16.866  12.600
  102PROX   H13  715  12.820  16.830  12.546
  102PROX    C2  716  12.971  16.839  12.383
  102PROX   H21  717  12.899  16.873  12.305
  102PROX    C3  718  12.992  16.690  12.382
  102PROX   H31  719  12.894  16.639  12.378
  102PROX   H32  720  13.045  16.670  12.287
  102PROX   H33  721  13.067  16.661  12.458
  103PROX    O1  722  13.089  16.908  12.366
  103PROX    C1  723  13.133  16.904  12.229
  103PROX   H11  724  13.064  16.857  12.155
  103PROX   H13  725  13.143  17.008  12.191
  103PROX    C2  726  13.276  16.850  12.223
  103PROX   H21  727  13.266  16.758  12.284
  103PROX    C3  728  13.391  16.932  12.280
  103PROX   H31  729  13.365  17.011  12.354
  103PROX   H32  730  13.468  16.864  12.323
  103PROX   H33  731  13.440  16.983  12.194
  104PROX    O1  732  13.298  16.820  12.085
  104PROX    C1  733  13.377  16.705  12.063
  104PROX   H11  734  13.436  16.731  11.973
  104PROX   H13  735  13.449  16.686  12.146
  104PROX    C2  736  13.292  16.582  12.045
  104PROX   H21  737  13.352  16.500  12.000
  104PROX    C3  738  13.173  16.610  11.941
  104PROX   H31  739  13.216  16.668  11.856
  104PROX   H32  740  13.122  16.516  11.909
  104PROX   H33  741  13.096  16.674  11.989
  105PROX    O1  742  13.249  16.529  12.168
  105PROX    C1  743  13.156  16.428  12.156
  105PROX   H11  744  13.051  16.453  12.134
  105PROX   H13  745  13.182  16.363  12.070
  105PROX    C2  746  13.145  16.343  12.283
  105PROX   H21  747  13.148  16.413  12.369
  105PROX    C3  748  13.270  16.252  12.290
  105PROX   H31  749  13.364  16.309  12.273
  105PROX   H32  750  13.277  16.189  12.381
  105PROX   H33  751  13.264  16.173  12.213
  106PROX    O1  752  13.021  16.267  12.276
  106PROX    C1  753  12.985  16.193  12.387
  106PROX   H11  754  13.052  16.104  12.392
  106PROX   H13  755  13.004  16.254  12.478
  106PROX    C2  756  12.831  16.148  12.376
  106PROX   H21  757  12.823  16.090  12.281
  106PROX    C3  758  12.738  16.265  12.380
  106PROX   H31  759  12.769  16.348  12.313
  106PROX   H32  760  12.632  16.241  12.362
  106PROX   H33  761  12.733  16.298  12.486
  107PROX    O1  762  12.795  16.059  12.485
  107PROX    C1  763  12.763  15.930  12.444
  107PROX   H11  764  12.674  15.944  12.380
  107PROX   H13  765  12.841  15.875  12.386
  107PROX    C2  766  12.715  15.839  12.560
  107PROX   H21  767  12.675  15.744  12.519
  107PROX    C3  768  12.603  15.900  12.647
  107PROX   H31  769  12.642  15.990  12.700
  107PROX   H32  770  12.518  15.927  12.582
  107PROX   H33  771  12.562  15.832  12.725
  108PROX    O1  772  12.824  15.799  12.643
  108PROX    C1  773  12.804  15.681  12.726
  108PROX   H11  774  12.868  15.682  12.817
  108PROX   H13  775  12.697  15.679  12.756
  108PROX    C2  776  12.828  15.553  12.647
  108PROX   H21  777  12.762  15.541  12.559
  108PROX    C3  778  12.793  15.419  12.720
  108PROX   H31  779  12.844  15.400  12.817
  108PROX   H32  780  12.684  15.415  12.744
  108PROX   H33  781  12.818  15.331  12.658
  109PROX    O1  782  12.967  15.543  12.622
  109PROX    C1  783  12.994  15.581  12.489
  109PROX   H11  784  12.966  15.487  12.437
  109PROX   H13  785  12.931  15.665  12.454
  109PROX    C2  786  13.145  15.615  12.471
  109PROX   H21  787  13.162  15.607  12.361
  109PROX    C3  788  13.250  15.526  12.534
  109PROX   H31  789  13.248  15.518  12.645
  109PROX   H32  790  13.256  15.420  12.503
  109PROX   H33  791  13.349  15.574  12.514
  110PROX    O1  792  13.169  15.756  12.500
  110PROX    C1  793  13.146  15.790  12.639
  110PROX   H11  794  13.053  15.744  12.678
  110PROX   H13  795  13.225  15.754  12.709
  110PROX    C2  796  13.129  15.938  12.657
  110PROX   H21  797  13.047  15.959  12.585
  110PROX    C3  798  13.262  16.011  12.620
  110PROX   H31  799  13.324  15.993  12.710
  110PROX   H32  800  13.306  15.970  12.528
  110PROX   H33  801  13.248  16.121  12.612
  111PROX    O1  802  13.095  15.975  12.785
  111PROX    C1  803  13.051  16.108  12.801
  111PROX   H11  804  13.096  16.171  12.880
  111PROX   H13  805  13.072  16.165  12.708
  111PROX    C2  806  12.902  16.111  12.832
  111PROX   H21  807  12.843  16.042  12.767
  111PROX    C3  808  12.843  16.248  12.845
  111PROX   H31  809  12.849  16.302  12.748
  111PROX   H32  810  12.734  16.242  12.862
  111PROX   H33  811  12.877  16.300  12.937
  112PROX    O1  812  12.876  16.077  12.968
  112PROX    C1  813  12.895  15.942  13.002
  112PROX   H11  814  12.946  15.884  12.922
  112PROX   H13  815  12.964  15.926  13.087
  112PROX    C2  816  12.759  15.879  13.036
  112PROX   H21  817  12.692  15.870  12.949
  112PROX    C3  818  12.678  15.969  13.132
  112PROX   H31  819  12.734  15.994  13.225
  112PROX   H32  820  12.659  16.072  13.096
  112PROX   H33  821  12.590  15.906  13.159
  113PROX    O1  822  12.776  15.742  13.081
  113PROX    C1  823  12.656  15.659  13.059
  113PROX   H11  824  12.573  15.704  13.118
  113PROX   H13  825  12.643  15.655  12.949
  113PROX    C2  826  12.681  15.515  13.109
  113PROX   H21  827  12.610  15.444  13.061
  113PROX    C3  828  12.659  15.511  13.265
  113PROX   H31  829  12.737  15.572  13.316
  113PROX   H32  830  12.564  15.558  13.297
  113PROX   H33  831  12.651  15.408  13.305
  114PROX    O1  832  12.812  15.472  13.080
  114PROX    C1  833  12.855  15.349  13.127
  114PROX   H11  834  12.871  15.357  13.237
  114PROX   H13  835  12.780  15.268  13.113
  114PROX    C2  836  12.989  15.314  13.069
  114PROX   H21  837  12.963  15.306  12.961
  114PROX    C3  838  13.052  15.184  13.125
  114PROX   H31  839  13.001  15.087  13.108
  114PROX   H32  840  13.152  15.175  13.078
  114PROX   H33  841  13.080  15.203  13.231
  115PROX    O1  842  13.082  15.421  13.081
  115PROX    C1  843  13.170  15.434  12.970
  115PROX   H11  844  13.253  15.363  12.990
  115PROX   H13  845  13.120  15.420  12.872
  115PROX    C2  846  13.242  15.567  12.977
  115PROX   H21  847  13.288  15.577  13.077
  115PROX    C3  848  13.129  15.677  12.977
  115PROX   H31  849  13.081  15.678  12.877
  115PROX   H32  850  13.044  15.655  13.045
  115PROX   H33  851  13.165  15.781  12.992
  116PROX    O1  852  13.332  15.579  12.870
  116PROX    C1  853  13.424  15.686  12.885
  116PROX   H11  854  13.380  15.780  12.925
  116PROX   H13  855  13.500  15.661  12.962
  116PROX    C2  856  13.494  15.720  12.755
  116PROX   H21  857  13.421  15.736  12.672
  116PROX    C3  858  13.595  15.608  12.718
  116PROX   H31  859  13.652  15.584  12.810
  116PROX   H32  860  13.551  15.516  12.673
  116PROX   H33  861  13.667  15.650  12.645
  117PROX    O1  862  13.561  15.848  12.762
  117PROX    C1  863  13.673  15.861  12.848
  117PROX   H11  864  13.633  15.863  12.952
  117PROX   H13  865  13.748  15.779  12.839
  117PROX    C2  866  13.748  15.993  12.820
  117PROX   H21  867  13.799  15.980  12.722
  117PROX    C3  868  13.844  16.015  12.930
  117PROX   H31  869  13.916  16.092  12.896
  117PROX   H32  870  13.798  16.061  13.020
  117PROX   H33  871  13.903  15.931  12.974
  118PROX    O1  872  13.655  16.111  12.806
  118PROX    C1  873  13.706  16.204  12.710
  118PROX   H11  874  13.799  16.244  12.755
  118PROX   H13  875  13.727  16.162  12.610
  118PROX    C2  876  13.623  16.329  12.665
  118PROX   H21  877  13.545  16.288  12.597
  118PROX    C3  878  13.706  16.426  12.575
  118PROX   H31  879  13.652  16.505  12.518
  118PROX   H32  880  13.782  16.467  12.645
  118PROX   H33  881  13.757  16.363  12.498
  119PROX    O1  882  13.584  16.403  12.780
  119PROX    C1  883  13.484  16.501  12.755
  119PROX   H11  884  13.468  16.559  12.848
  119PROX   H13  885  13.509  16.570  12.671
  119PROX    C2  886  13.345  16.435  12.730
  119PROX   H21  887  13.355  16.332  12.689
  119PROX    C3  888  13.264  16.515  12.630
  119PROX   H31  889  13.300  16.520  12.525
  119PROX   H32  890  13.167  16.461  12.635
  119PROX   H33  891  13.257  16.622  12.658
  120PROX    O1  892  13.269  16.414  12.847
  120PROX    C1  893  13.319  16.317  12.934
  120PROX   H11  894  13.296  16.217  12.892
  120PROX   H13  895  13.426  16.338  12.954
  120PROX    C2  896  13.244  16.313  13.076
  120PROX   H21  897  13.134  16.310  13.058
  120PROX    C3  898  13.280  16.435  13.152
  120PROX   H31  899  13.252  16.424  13.260
  120PROX   H32  900  13.390  16.447  13.153
  120PROX   H33  901  13.229  16.528  13.120
  121PROX    O1  902  13.281  16.196  13.151
  121PROX    C1  903  13.205  16.074  13.124
  121PROX   H11  904  13.102  16.101  13.091
  121PROX   H13  905  13.249  16.029  13.033
  121PROX    C2  906  13.200  15.978  13.242
  121PROX   H21  907  13.141  15.885  13.226
  121PROX    C3  908  13.131  16.059  13.356
  121PROX   H31  909  13.154  16.167  13.369
  121PROX   H32  910  13.020  16.051  13.355
  121PROX   H33  911  13.166  16.021  13.454
  122PROX    O1  912  13.328  15.944  13.294
  122PROX    C1  913  13.394  15.854  13.201
  122PROX   H11  914  13.338  15.760  13.181
  122PROX   H13  915  13.406  15.900  13.101
  122PROX    C2  916  13.537  15.823  13.247
  122PROX   H21  917  13.526  15.800  13.355
  122PROX    C3  918  13.622  15.954  13.234
  122PROX   H31  919  13.609  15.996  13.132
  122PROX   H32  920  13.590  16.030  13.308
  122PROX   H33  921  13.729  15.936  13.255
  123PROX    O1  922  13.589  15.717  13.174
  123PROX    C1  923  13.711  15.666  13.216
  123PROX   H11  924  13.788  15.708  13.148
  123PROX   H13  925  13.731  15.710  13.317
  123PROX    C2  926  13.733  15.505  13.209
  123PROX   H21  927  13.657  15.465  13.279
  123PROX    C3  928  13.879  15.456  13.231
  123PROX   H31  929  13.937  15.508  13.152
  123PROX   H32  930  13.915  15.491  13.330
  123PROX   H33  931  13.886  15.347  13.210
  124PROX    O1  932  13.688  15.465  13.084
  124PROX    C1  933  13.633  15.333  13.094
  124PROX   H11  934  13.701  15.268  13.154
  124PROX   H13  935  13.541  15.354  13.153
  124PROX    C2  936  13.579  15.287  12.965
  124PROX   H21  937  13.539  15.371  12.905
  124PROX    C3  938  13.473  15.181  12.975
  124PROX   H31  939  13.400  15.158  12.893
  124PROX   H32  940  13.528  15.088  13.003
  124PROX   H33  941  13.409  15.213  13.060
  125PROX    O1  942  13.670  15.220  12.880
  125PROX    C1  943  13.768  15.304  12.820
  125PROX   H11  944  13.720  15.369  12.744
  125PROX   H13  945  13.815  15.360  12.904
  125PROX    C2  946  13.886  15.233  12.743
  125PROX   H21  947  13.936  15.166  12.816
  125PROX    C3  948  13.989  15.340  12.707
  125PROX   H31  949  14.036  15.380  12.799
  125PROX   H32  950  14.069  15.303  12.639
  125PROX   H33  951  13.926  15.412  12.650
  126PROX    O1  952  13.850  15.169  12.619
  126PROX    C1  953  13.862  15.026  12.630
  126PROX   H11  954  13.879  14.986  12.528
  126PROX   H13  955  13.936  14.992  12.705
  126PROX    C2  956  13.728  14.962  12.679
  126PROX   H21  957  13.694  15.001  12.777
  126PROX    C3  958  13.755  14.809  12.706
  126PROX   H31  959  13.787  14.752  12.615
  126PROX   H32  960  13.839  14.803  12.778
  126PROX   H33  961  13.669  14.761  12.756
  127PROX    O1  962  13.624  14.986  12.580
  127PROX    C1  963  13.496  14.964  12.632
  127PROX   H11  964  13.470  14.856  12.627
  127PROX   H13  965  13.480  14.989  12.739
  127PROX    C2  966  13.413  15.068  12.566
  127PROX   H21  967  13.392  15.037  12.462
  127PROX    C3  968  13.467  15.210  12.568
  127PROX   H31  969  13.394  15.271  12.511
  127PROX   H32  970  13.466  15.243  12.675
  127PROX   H33  971  13.566  15.211  12.517
  128PROX    O1  972  13.285  15.074  12.634
  128PROX    C1  973  13.201  14.956  12.621
  128PROX   H11  974  13.230  14.918  12.521
  128PROX   H13  975  13.214  14.884  12.705
  128PROX    C2  976  13.056  14.992  12.616
  128PROX   H21  977  13.042  15.079  12.548
  128PROX    C3  978  13.038  15.036  12.765
  128PROX   H31  979  12.950  15.104  12.767
  128PROX   H32  980  13.013  14.955  12.837
  128PROX   H33  981  13.123  15.095  12.806
  129PROX    O1  982  12.980  14.882  12.583
  129PROX    C1  983  12.845  14.894  12.621
  129PROX   H11  984  12.839  14.842  12.719
  129PROX   H13  985  12.810  14.998  12.638
  129PROX    C2  986  12.754  14.830  12.511
  129PROX   H21  987  12.784  14.724  12.499
  129PROX    C3  988  12.766  14.914  12.384
  129PROX   H31  989  12.873  14.926  12.359
  129PROX   H32  990  12.704  14.879  12.299
  129PROX   H33  991  12.731  15.016  12.409
  130PROX    O1  992  12.616  14.839  12.536
  130PROX    C1  993  12.580  14.756  12.648
  130PROX   H11  994  12.590  14.650  12.617
  130PROX   H13  995  12.625  14.789  12.744
  130PROX    C2  996  12.427  14.773  12.657
  130PROX   H21  997  12.415  14.883  12.660
  130PROX    C3  998  12.367  14.722  12.792
  130PROX   H31  999  12.273  14.770  12.824
  130PROX   H32 1000  12.348  14.612  12.797
  130PROX   H33 1001  12.444  14.750  12.867
  131PROX    O1 1002  12.354  14.726  12.552
  131PROX    C1 1003  12.227  14.786  12.558
  131PROX   H11 1004  12.165  14.709  12.607
  131PROX   H13 1005  12.218  14.878  12.620
  131PROX    C2 1006  12.171  14.819  12.415
  131PROX   H21 1007  12.151  14.720  12.369
  131PROX    C3 1008  12.266  14.900  12.330
  131PROX   H31 1009  12.231  14.889  12.226
  131PROX   H32 1010  12.272  15.007  12.362
  131PROX   H33 1011  12.372  14.867  12.335
  132PROX    O1 1012  12.043  14.886  12.425
  132PROX    C1 1013  11.985  14.932  12.311
  132PROX   H11 1014  12.049  15.011  12.266
  132PROX   H13 1015  11.968  14.852  12.235
  132PROX    C2 1016  11.849  15.005  12.332
  132PROX   H21 1017  11.875  15.088  12.402
  132PROX    C3 1018  11.735  14.932  12.402
  132PROX   H31 1019  11.776  14.898  12.499
  132PROX   H32 1020  11.640  14.986  12.421
  132PROX   H33 1021  11.716  14.847  12.333
  133PROX    O1 1022  11.807  15.070  12.211
  133PROX    C1 1023  11.741  15.193  12.241
  133PROX   H11 1024  11.657  15.164  12.307
  133PROX   H13 1025  11.802  15.269  12.294
  133PROX    C2 1026  11.678  15.253  12.111
  133PROX   H21 1027  11.622  15.346  12.135
  133PROX    C3 1028  11.572  15.155  12.065
  133PROX   H31 1029  11.621  15.059  12.038
  133PROX   H32 1030  11.495  15.126  12.139
  133PROX   H33 1031  11.524  15.194  11.973
  134PROX    O1 1032  11.783  15.278  12.014
  134PROX    C1 1033  11.748  15.370  11.914
  134PROX   H11 1034  11.815  15.346  11.829
  134PROX   H13 1035  11.641  15.352  11.889
  134PROX    C2 1036  11.763  15.518  11.962
  134PROX   H21 1037  11.702  15.552  12.048
  134PROX    C3 1038  11.715  15.604  11.844
  134PROX   H31 1039  11.764  15.589  11.746
  134PROX   H32 1040  11.606  15.590  11.824
  134PROX   H33 1041  11.728  15.707  11.882
  135PROX    O1 1042  11.902  15.559  11.975
  135PROX    C1 1043  11.958  15.528  12.112
  135PROX   H11 1044  11.924  15.428  12.145
  135PROX   H13 1045  12.068  15.519  12.098
  135PROX    C2 1046  11.928  15.637  12.223
  135PROX   H21 1047  11.822  15.624  12.255
  135PROX    C3 1048  11.928  15.775  12.156
  135PROX   H31 1049  11.845  15.774  12.082
  135PROX   H32 1050  11.894  15.846  12.235
  135PROX   H33 1051  12.020  15.809  12.104
  136PROX    O1 1052  12.007  15.619  12.340
  136PROX    C1 1053  11.953  15.527  12.434
  136PROX   H11 1054  11.914  15.592  12.515
  136PROX   H13 1055  11.869  15.470  12.390
  136PROX    C2 1056  12.061  15.425  12.465
  136PROX   H21 1057  12.150  15.482  12.500
  136PROX    C3 1058  12.106  15.339  12.344
  136PROX   H31 1059  12.026  15.271  12.309
  136PROX   H32 1060  12.146  15.397  12.258
  136PROX   H33 1061  12.180  15.264  12.379
  137PROX    O1 1062  12.014  15.334  12.564
  137PROX    C1 1063  12.115  15.293  12.660
  137PROX   H11 1064  12.215  15.328  12.626
  137PROX   H13 1065  12.092  15.342  12.757
  137PROX    C2 1066  12.124  15.139  12.675
  137PROX   H21 1067  12.147  15.088  12.579
  137PROX    C3 1068  11.992  15.061  12.713
  137PROX   H31 1069  11.917  15.073  12.633
  137PROX   H32 1070  12.008  14.951  12.719
  137PROX   H33 1071  11.964  15.100  12.813
  138PROX    O1 1072  12.231  15.100  12.766
  138PROX    C1 1073  12.209  15.107  12.906
  138PROX   H11 1074  12.164  15.205  12.934
  138PROX   H13 1075  12.138  15.030  12.946
  138PROX    C2 1076  12.342  15.092  12.986
  138PROX   H21 1077  12.401  15.005  12.951
  138PROX    C3 1078  12.327  15.073  13.142
  138PROX   H31 1079  12.427  15.044  13.181
  138PROX   H32 1080  12.268  15.155  13.189
  138PROX   H33 1081  12.268  14.981  13.159
  139PROX    O1 1082  12.417  15.213  12.970
  139PROX    C1 1083  12.472  15.249  12.848
  139PROX   H11 1084  12.400  15.302  12.782
  139PROX   H13 1085  12.551  15.324  12.872
  139PROX    C2 1086  12.545  15.132  12.771
  139PROX   H21 1087  12.467  15.057  12.746
  139PROX    C3 1088  12.658  15.073  12.859
  139PROX   H31 1089  12.752  15.130  12.843
  139PROX   H32 1090  12.623  15.088  12.963
  139PROX   H33 1091  12.671  14.966  12.834
  140PROX    O1 1092  12.582  15.192  12.648
  140PROX    C1 1093  12.490  15.169  12.544
  140PROX   H11 1094  12.487  15.066  12.504
  140PROX   H13 1095  12.383  15.184  12.571
  140PROX    C2 1096  12.515  15.267  12.437
  140PROX   H21 1097  12.624  15.265  12.415
  140PROX    C3 1098  12.471  15.417  12.472
  140PROX   H31 1099  12.495  15.488  12.390
  140PROX   H32 1100  12.362  15.414  12.494
  140PROX   H33 1101  12.519  15.436  12.570
  141PROX    O1 1102  12.425  15.243  12.327
  141PROX    C1 1103  12.479  15.154  12.231
  141PROX   H11 1104  12.576  15.196  12.198
  141PROX   H13 1105  12.482  15.052  12.275
  141PROX    C2 1106  12.396  15.140  12.098
  141PROX   H21 1107  12.292  15.110  12.124
  141PROX    C3 1108  12.461  15.052  11.990
  141PROX   H31 1109  12.541  15.102  11.933
  141PROX   H32 1110  12.523  14.965  12.020
  141PROX   H33 1111  12.380  15.012  11.926
  142PROX    O1 1112  12.377  15.273  12.043
  142PROX    C1 1113  12.268  15.267  11.945
  142PROX   H11 1114  12.294  15.204  11.858
  142PROX   H13 1115  12.164  15.250  11.981
  142PROX    C2 1116  12.244  15.404  11.865
  142PROX   H21 1117  12.232  15.489  11.935
  142PROX    C3 1118  12.127  15.394  11.763
  142PROX   H31 1119  12.030  15.391  11.816
  142PROX   H32 1120  12.131  15.474  11.686
  142PROX   H33 1121  12.139  15.296  11.711
  143PROX    O1 1122  12.353  15.419  11.778
  143PROX    C1 1123  12.467  15.483  11.834
  143PROX   H11 1124  12.450  15.587  11.869
  143PROX   H13 1125  12.495  15.431  11.928
  143PROX    C2 1126  12.595  15.498  11.749
  143PROX   H21 1127  12.575  15.565  11.663
  143PROX    C3 1128  12.635  15.352  11.702
  143PROX   H31 1129  12.546  15.309  11.650
  143PROX   H32 1130  12.722  15.356  11.633
  143PROX   H33 1131  12.660  15.292  11.792
  144PROX    O1 1132  12.691  15.575  11.821
  144PROX    C1 1133  12.825  15.565  11.772
  144PROX   H11 1134  12.883  15.480  11.814
  144PROX   H13 1135  12.819  15.560  11.661
  144PROX    C2 1136  12.923  15.687  11.812
  144PROX   H21 1137  12.894  15.697  11.919
  144PROX    C3 1138  12.894  15.823  11.755
  144PROX   H31 1139  12.789  15.851  11.778
  144PROX   H32 1140  12.969  15.896  11.793
  144PROX   H33 1141  12.906  15.822  11.644
  145PROX    O1 1142  13.051  15.642  11.789
  145PROX    C1 1143  13.154  15.692  11.871
  145PROX   H11 1144  13.182  15.791  11.829
  145PROX   H13 1145  13.133  15.713  11.978
  145PROX    C2 1146  13.270  15.601  11.872
  145PROX   H21 1147  13.286  15.564  11.769
  145PROX    C3 1148  13.236  15.479  11.960
  145PROX   H31 1149  13.306  15.396  11.937
  145PROX   H32 1150  13.230  15.492  12.070
  145PROX   H33 1151  13.133  15.449  11.933
  146PROX    O1 1152  13.390  15.663  11.912
  146PROX    C1 1153  13.506  15.588  11.880
  146PROX   H11 1154  13.517  15.502  11.950
  146PROX   H13 1155  13.494  15.537  11.781
  146PROX    C2 1156  13.624  15.685  11.882
  146PROX   H21 1157  13.625  15.743  11.977
  146PROX    C3 1158  13.622  15.789  11.767
  146PROX   H31 1159  13.529  15.849  11.780
  146PROX   H32 1160  13.720  15.840  11.761
  146PROX   H33 1161  13.612  15.744  11.666
  147PROX    O1 1162  13.747  15.616  11.860
  147PROX    C1 1163  13.780  15.518  11.957
  147PROX   H11 1164  13.750  15.549  12.060
  147PROX   H13 1165  13.727  15.425  11.931
  147PROX    C2 1166  13.933  15.491  11.959
  147PROX   H21 1167  13.955  15.448  11.859
  147PROX    C3 1168  13.953  15.377  12.057
  147PROX   H31 1169  13.939  15.428  12.155
  147PROX   H32 1170  13.879  15.295  12.041
  147PROX   H33 1171  14.051  15.325  12.055
  148PROX    O1 1172  14.002  15.606  11.990
  148PROX    C1 1173  14.138  15.599  11.970
  148PROX   H11 1174  14.178  15.547  12.059
  148PROX   H13 1175  14.164  15.529  11.888
  148PROX    C2 1176  14.208  15.739  11.948
  148PROX   H21 1177  14.145  15.794  11.875
  148PROX    C3 1178  14.357  15.731  11.897
  148PROX   H31 1179  14.354  15.706  11.789
  148PROX   H32 1180  14.402  15.833  11.897
  148PROX   H33 1181  14.413  15.655  11.956
  149PROX    O1 1182  14.206  15.821  12.067
  149PROX    C1 1183  14.084  15.878  12.115
  149PROX   H11 1184  14.094  15.985  12.143
  149PROX   H13 1185  14.013  15.894  12.031
  149PROX    C2 1186  14.011  15.805  12.230
  149PROX   H21 1187  14.031  15.697  12.217
  149PROX    C3 1188  13.856  15.803  12.196
  149PROX   H31 1189  13.803  15.748  12.277
  149PROX   H32 1190  13.817  15.907  12.200
  149PROX   H33 1191  13.836  15.777  12.090
  150PROX    O1 1192  14.058  15.845  12.356
  150PROX    C1 1193  13.988  15.781  12.461
  150PROX   H11 1194  13.883  15.818  12.471
  150PROX   H13 1195  14.002  15.673  12.444
  150PROX    C2 1196  14.069  15.814  12.588
  150PROX   H21 1197  14.176  15.807  12.557
  150PROX    C3 1198  14.050  15.721  12.709
  150PROX   H31 1199  13.940  15.722  12.720
  150PROX   H32 1200  14.087  15.616  12.703
  150PROX   H33 1201  14.092  15.763  12.803
  151PROX    O1 1202  14.038  15.951  12.621
  151PROX    C1 1203  14.146  16.041  12.592
  151PROX   H11 1204  14.219  16.025  12.674
  151PROX   H13 1205  14.200  16.010  12.500
  151PROX    C2 1206  14.116  16.197  12.584
  151PROX   H21 1207  14.205  16.238  12.532
  151PROX    C3 1208  14.101  16.260  12.722
  151PROX   H31 1209  14.010  16.211  12.761
  151PROX   H32 1210  14.193  16.235  12.779
  151PROX   H33 1211  14.078  16.369  12.724
  152PROX    O1 1212  13.997  16.221  12.510
  152PROX    C1 1213  14.016  16.180  12.371
  152PROX   H11 1214  14.122  16.185  12.338
  152PROX   H13 1215  13.994  16.072  12.382
  152PROX    C2 1216  13.915  16.248  12.269
  152PROX   H21 1217  13.930  16.358  12.274
  152PROX    C3 1218  13.771  16.191  12.298
  152PROX   H31 1219  13.736  16.205  12.403
  152PROX   H32 1220  13.699  16.237  12.227
  152PROX   H33 1221  13.767  16.082  12.279
  153PROX    O1 1222  13.940  16.193  12.143
  153PROX    C1 1223  14.004  16.283  12.058
  153PROX   H11 1224  13.951  16.381  12.059
  153PROX   H13 1225  14.109  16.287  12.095
  153PROX    C2 1226  14.019  16.220  11.919
  153PROX   H21 1227  14.033  16.109  11.924
  153PROX    C3 1228  14.145  16.273  11.846
  153PROX   H31 1229  14.145  16.381  11.875
  153PROX   H32 1230  14.239  16.229  11.886
  153PROX   H33 1231  14.134  16.258  11.737
  154PROX    O1 1232  13.892  16.241  11.851
  154PROX    C1 1233  13.779  16.184  11.914
  154PROX   H11 1234  13.790  16.075  11.932
  154PROX   H13 1235  13.765  16.224  12.017
  154PROX    C2 1236  13.659  16.220  11.833
  154PROX   H21 1237  13.681  16.202  11.726
  154PROX    C3 1238  13.606  16.361  11.834
  154PROX   H31 1239  13.686  16.437  11.820
  154PROX   H32 1240  13.519  16.373  11.767
  154PROX   H33 1241  13.559  16.391  11.930
  155PROX    O1 1242  13.551  16.126  11.854
  155PROX    C1 1243  13.487  16.143  11.985
  155PROX   H11 1244  13.566  16.152  12.062
  155PROX   H13 1245  13.415  16.228  11.984
  155PROX    C2 1246  13.395  16.019  12.012
  155PROX   H21 1247  13.427  15.934  11.948
  155PROX    C3 1248  13.251  16.044  11.977
  155PROX   H31 1249  13.210  16.140  12.016
  155PROX   H32 1250  13.239  16.047  11.867
  155PROX   H33 1251  13.190  15.953  12.001
  156PROX    O1 1252  13.395  15.985  12.151
  156PROX    C1 1253  13.484  15.874  12.178
  156PROX   H11 1254  13.445  15.785  12.124
  156PROX   H13 1255  13.585  15.901  12.141
  156PROX    C2 1256  13.490  15.834  12.333
  156PROX   H21 1257  13.387  15.808  12.368
  156PROX    C3 1258  13.548  15.942  12.418
  156PROX   H31 1259  13.526  15.927  12.525
  156PROX   H32 1260  13.659  15.943  12.415
  156PROX   H33 1261  13.516  16.042  12.381
  157PROX    O1 1262  13.579  15.722  12.354
  157PROX    C1 1263  13.532  15.600  12.294
  157PROX   H11 1264  13.424  15.581  12.312
  157PROX   H13 1265  13.552  15.611  12.185
  157PROX    C2 1266  13.606  15.475  12.353
  157PROX   H21 1267  13.567  15.467  12.457
  157PROX    C3 1268  13.755  15.495  12.359
  157PROX   H31 1269  13.800  15.520  12.261
  157PROX   H32 1270  13.771  15.585  12.422
  157PROX   H33 1271  13.809  15.409  12.403
  158PROX    O1 1272  13.579  15.352  12.291
  158PROX    C1 1273  13.448  15.344  12.235
  158PROX   H11 1274  13.378  15.361  12.320
  158PROX   H13 1275  13.425  15.414  12.152
  158PROX    C2 1276  13.435  15.198  12.177
  158PROX   H21 1277  13.459  15.130  12.261
  158PROX    C3 1278  13.540  15.164  12.069
  158PROX   H31 1279  13.620  15.101  12.115
  158PROX   H32 1280  13.508  15.102  11.983
  158PROX   H33 1281  13.577  15.258  12.023
  159PROX    O1 1282  13.309  15.178  12.122
  159PROX    C1 1283  13.277  15.036  12.113
  159PROX   H11 1284  13.244  15.014  12.009
  159PROX   H13 1285  13.366  14.975  12.139
  159PROX    C2 1286  13.156  14.999  12.212
  159PROX   H21 1287  13.173  15.043  12.313
  159PROX    C3 1288  13.129  14.848  12.225
  159PROX   H31 1289  13.022  14.824  12.206
  159PROX   H32 1290  13.182  14.797  12.142
  159PROX   H33 1291  13.171  14.804  12.318
  160PROX    O1 1292  13.034  15.051  12.160
  160PROX    C1 1293  13.027  15.189  12.165
  160PROX   H11 1294  13.071  15.228  12.259
  160PROX   H13 1295  13.081  15.234  12.079
  160PROX    C2 1296  12.879  15.245  12.166
  160PROX   H21 1297  12.824  15.194  12.248
  160PROX    C3 1298  12.809  15.216  12.036
  160PROX   H31 1299  12.710  15.266  12.029
  160PROX   H32 1300  12.867  15.261  11.953
  160PROX   H33 1301  12.789  15.107  12.029
  161PROX    O1 1302  12.881  15.385  12.173
  161PROX    C1 1303  12.761  15.449  12.227
  161PROX   H11 1304  12.672  15.383  12.216
  161PROX   H13 1305  12.780  15.467  12.335
  161PROX    C2 1306  12.737  15.581  12.156
  161PROX   H21 1307  12.716  15.556  12.050
  161PROX    C3 1308  12.853  15.675  12.173
  161PROX   H31 1309  12.952  15.631  12.149
  161PROX   H32 1310  12.845  15.769  12.114
  161PROX   H33 1311  12.865  15.711  12.277
  162PROX    O1 1312  12.622  15.649  12.216
  162PROX    C1 1313  12.564  15.758  12.141
  162PROX   H11 1314  12.641  15.839  12.140
  162PROX   H13 1315  12.540  15.729  12.037
  162PROX    C2 1316  12.433  15.797  12.210
  162PROX   H21 1317  12.454  15.807  12.319
  162PROX    C3 1318  12.323  15.685  12.200
  162PROX   H31 1319  12.233  15.721  12.254
  162PROX   H32 1320  12.296  15.658  12.096
  162PROX   H33 1321  12.360  15.599  12.260
  163PROX    O1 1322  12.376  15.907  12.141
  163PROX    C1 1323  12.442  16.029  12.184
  163PROX   H11 1324  12.478  16.036  12.289
  163PROX   H13 1325  12.529  16.050  12.118
  163PROX    C2 1326  12.352  16.153  12.160
  163PROX   H21 1327  12.277  16.141  12.241
  163PROX    C3 1328  12.277  16.152  12.028
  163PROX   H31 1329  12.207  16.238  12.023
  163PROX   H32 1330  12.350  16.168  11.947
  163PROX   H33 1331  12.216  16.062  12.004
  164PROX    O1 1332  12.436  16.271  12.171
  164PROX    C1 1333  12.359  16.398  12.185
  164PROX   H11 1334  12.265  16.390  12.126
  164PROX   H13 1335  12.324  16.410  12.290
  164PROX    C2 1336  12.439  16.537  12.147
  164PROX   H21 1337  12.499  16.515  12.056
  164PROX    C3 1338  12.532  16.589  12.256
  164PROX   H31 1339  12.626  16.536  12.280
  164PROX   H32 1340  12.548  16.698  12.239
  164PROX   H33 1341  12.479  16.594  12.353
  165PROX    O1 1342  12.345  16.643  12.107
  165PROX    C1 1343  12.294  16.615  11.973
  165PROX   H11 1344  12.371  16.590  11.897
  165PROX   H13 1345  12.232  16.524  11.961
  165PROX    C2 1346  12.204  16.733  11.926
  165PROX   H21 1347  12.263  16.826  11.940
  165PROX    C3 1348  12.080  16.743  12.012
  165PROX   H31 1349  12.107  16.755  12.119
  165PROX   H32 1350  12.023  16.833  11.980
  165PROX   H33 1351  12.005  16.661  12.007
  166ETHO    O1 1352  12.164  16.709  11.790
  166ETHO    C1 1353  12.179  16.824  11.709
  166ETHO   H11 1354  12.138  16.919  11.749
  166ETHO   H13 1355  12.122  16.802  11.617
  166ETHO    C2 1356  12.329  16.838  11.659
  166ETHO   H21 1357  12.334  16.926  11.591
  166ETHO   H23 1358  12.374  16.757  11.598
  167ETHO    O1 1359  12.413  16.866  11.771
  167ETHO    C1 1360  12.548  16.893  11.739
  167ETHO   H11 1361  12.594  16.803  11.693
  167ETHO   H13 1362  12.559  16.976  11.666
  167ETHO    C2 1363  12.621  16.928  11.876
  167ETHO   H21 1364  12.726  16.891  11.877
  167ETHO   H23 1365  12.587  16.848  11.946
  168ETHO    O1 1366  12.598  17.059  11.927
  168ETHO    C1 1367  12.620  17.074  12.066
  168ETHO   H11 1368  12.621  17.183  12.088
  168ETHO   H13 1369  12.721  17.040  12.097
  168ETHO    C2 1370  12.517  17.014  12.156
  168ETHO   H21 1371  12.564  17.015  12.256
  168ETHO   H23 1372  12.493  16.914  12.114
  169ETHO    O1 1373  12.401  17.093  12.158
  169ETHO    C1 1374  12.296  17.041  12.249
  169ETHO   H11 1375  12.269  16.937  12.221
  169ETHO   H13 1376  12.319  17.037  12.358
  169ETHO    C2 1377  12.160  17.116  12.232
  169ETHO   H21 1378  12.085  17.057  12.289
  169ETHO   H23 1379  12.137  17.117  12.123
  170ETHO    O1 1380  12.164  17.243  12.288
  170ETHO    C1 1381  12.048  17.316  12.255
  170ETHO   H11 1382  11.995  17.299  12.159
  170ETHO   H13 1383  12.069  17.424  12.241
  170ETHO    C2 1384  11.945  17.328  12.373
  170ETHO   H21 1385  11.875  17.412  12.352
  170ETHO   H23 1386  12.005  17.342  12.465
  171ETHO    O1 1387  11.875  17.203  12.393
  171ETHO    C1 1388  11.799  17.213  12.509
  171ETHO   H11 1389  11.870  17.162  12.578
  171ETHO   H13 1390  11.790  17.317  12.545
  171ETHO    C2 1391  11.667  17.137  12.501
  171ETHO   H21 1392  11.614  17.134  12.598
  171ETHO   H23 1393  11.698  17.032  12.480
  172ETHO    O1 1394  11.581  17.186  12.397
  172ETHO    C1 1395  11.472  17.100  12.381
  172ETHO   H11 1396  11.412  17.105  12.474
  172ETHO   H13 1397  11.508  16.995  12.373
  172ETHO    C2 1398  11.392  17.148  12.257
  172ETHO   H21 1399  11.382  17.258  12.272
  172ETHO   H23 1400  11.292  17.100  12.260
  173ETHO    O1 1401  11.458  17.128  12.132
  173ETHO    C1 1402  11.392  17.192  12.031
  173ETHO   H11 1403  11.415  17.131  11.940
  173ETHO   H13 1404  11.285  17.185  12.058
  173ETHO    C2 1405  11.453  17.331  11.992
  173ETHO   H21 1406  11.415  17.364  11.893
  173ETHO   H23 1407  11.434  17.417  12.061
  174ETHO    O1 1408  11.594  17.338  11.977
  174ETHO    C1 1409  11.666  17.366  12.098
  174ETHO   H11 1410  11.614  17.322  12.187
  174ETHO   H13 1411  11.759  17.306  12.085
  174ETHO    C2 1412  11.694  17.513  12.114
  174ETHO   H21 1413  11.719  17.531  12.221
  174ETHO   H23 1414  11.609  17.577  12.081
  175ETHO    O1 1415  11.808  17.536  12.036
  175ETHO    C1 1416  11.830  17.672  11.991
  175ETHO   H11 1417  11.918  17.675  11.923
  175ETHO   H13 1418  11.738  17.697  11.933
  175ETHO    C2 1419  11.857  17.770  12.108
  175ETHO   H21 1420  11.893  17.866  12.065
  175ETHO   H23 1421  11.941  17.723  12.164
  176ETHO    O1 1422  11.745  17.805  12.193
  176ETHO    C1 1423  11.786  17.893  12.302
  176ETHO   H11 1424  11.865  17.966  12.273
  176ETHO   H13 1425  11.696  17.950  12.334
  176ETHO    C2 1426  11.845  17.810  12.424
  176ETHO   H21 1427  11.774  17.728  12.449
  176ETHO   H23 1428  11.839  17.871  12.517
  177ETHO    O1 1429  11.973  17.761  12.402
  177ETHO    C1 1430  12.006  17.671  12.510
  177ETHO   H11 1431  11.936  17.585  12.512
  177ETHO   H13 1432  12.007  17.719  12.610
  177ETHO    C2 1433  12.153  17.616  12.478
  177ETHO   H21 1434  12.146  17.572  12.377
  177ETHO   H23 1435  12.189  17.541  12.552
  178ETHO    O1 1436  12.248  17.723  12.472
  178ETHO    C1 1437  12.380  17.678  12.471
  178ETHO   H11 1438  12.409  17.617  12.559
  178ETHO   H13 1439  12.389  17.615  12.380
  178ETHO    C2 1440  12.478  17.795  12.460
  178ETHO   H21 1441  12.580  17.752  12.456
  178ETHO   H23 1442  12.468  17.851  12.555
  179ETHO    O1 1443  12.441  17.889  12.362
  179ETHO    C1 1444  12.533  17.997  12.365
  179ETHO   H11 1445  12.638  17.964  12.352
  179ETHO   H13 1446  12.533  18.047  12.464
  179ETHO    C2 1447  12.501  18.110  12.266
  179ETHO   H21 1448  12.561  18.201  12.287
  179ETHO   H23 1449  12.396  18.141  12.289
  180ETHO    O1 1450  12.525  18.087  12.130
  180ETHO    C1 1451  12.470  18.193  12.060
  180ETHO   H11 1452  12.366  18.199  12.098
  180ETHO   H13 1453  12.534  18.282  12.079
  180ETHO    C2 1454  12.468  18.150  11.915
  180ETHO   H21 1455  12.388  18.209  11.866
  180ETHO   H23 1456  12.432  18.045  11.905
  181ETHO    O1 1457  12.593  18.164  11.842
  181ETHO    C1 1458  12.579  18.173  11.709
  181ETHO   H11 1459  12.524  18.267  11.685
  181ETHO   H13 1460  12.521  18.083  11.679
  181ETHO    C2 1461  12.710  18.156  11.640
  181ETHO   H21 1462  12.706  18.143  11.529
  181ETHO   H23 1463  12.751  18.057  11.671
  182ETHO    O1 1464  12.810  18.251  11.664
  182ETHO    C1 1465  12.803  18.363  11.576
  182ETHO   H11 1466  12.799  18.322  11.473
  182ETHO   H13 1467  12.709  18.423  11.577
  182ETHO    C2 1468  12.921  18.460  11.588
  182ETHO   H21 1469  12.926  18.499  11.484
  182ETHO   H23 1470  13.018  18.413  11.614
  183ETHO    O1 1471  12.885  18.556  11.687
  183ETHO    C1 1472  12.974  18.666  11.668
  183ETHO   H11 1473  12.963  18.713  11.569
  183ETHO   H13 1474  13.081  18.638  11.675
  183ETHO    C2 1475  12.945  18.776  11.770
  183ETHO   H21 1476  13.029  18.848  11.758
  183ETHO   H23 1477  12.943  18.727  11.869
  184ETHO    O1 1478  12.821  18.845  11.737
  184ETHO    C1 1479  12.729  18.874  11.846
  184ETHO   H11 1480  12.660  18.789  11.865
  184ETHO   H13 1481  12.780  18.884  11.945
  184ETHO    C2 1482  12.646  19.003  11.819
  184ETHO   H21 1483  12.556  19.007  11.884
  184ETHO   H23 1484  12.599  18.996  11.719
  185ETHO    O1 1485  12.728  19.114  11.832
  185ETHO    C1 1486  12.658  19.230  11.814
  185ETHO   H11 1487  12.730  19.312  11.793
  185ETHO   H13 1488  12.590  19.217  11.727
  185ETHO    C2 1489  12.570  19.272  11.936
  185ETHO   H21 1490  12.545  19.184  12.000
  185ETHO   H23 1491  12.474  19.321  11.910
  186ETHO    O1 1492  12.651  19.353  12.017
  186ETHO    C1 1493  12.581  19.389  12.139
  186ETHO   H11 1494  12.522  19.304  12.178
  186ETHO   H13 1495  12.663  19.410  12.211
  186ETHO    C2 1496  12.505  19.524  12.130
  186ETHO   H21 1497  12.461  19.536  12.231
  186ETHO   H23 1498  12.420  19.523  12.058
  187ETHO    O1 1499  12.596  19.622  12.096
  187ETHO    C1 1500  12.539  19.751  12.068
  187ETHO   H11 1501  12.518  19.752  11.958
  187ETHO   H13 1502  12.452  19.754  12.136
  187ETHO    C2 1503  12.641  19.868  12.097
  187ETHO   H21 1504  12.704  19.825  12.178
  187ETHO   H23 1505  12.598  19.963  12.137
  188ETHO    O1 1506  12.738  19.887  12.005
  188ETHO    C1 1507  12.680  19.945  11.892
  188ETHO   H11 1508  12.625  20.034  11.929
  188ETHO   H13 1509  12.598  19.886  11.844
  188ETHO    C2 1510  12.793  19.985  11.792
  188ETHO   H21 1511  12.853  20.067  11.837
  188ETHO   H23 1512  12.755  20.016  11.693
  189ETHO    O1 1513  12.886  19.882  11.766
  189ETHO    C1 1514  12.988  19.918  11.667
  189ETHO   H11 1515  12.951  19.873  11.573
  189ETHO   H13 1516  12.995  20.029  11.663
  189ETHO    C2 1517  13.117  19.848  11.705
  189ETHO   H21 1518  13.186  19.840  11.618
  189ETHO   H23 1519  13.091  19.743  11.730
  190ETHO    O1 1520  13.187  19.901  11.816
  190ETHO    C1 1521  13.311  19.829  11.836
  190ETHO   H11 1522  13.369  19.852  11.745
  190ETHO   H13 1523  13.288  19.722  11.852
  190ETHO    C2 1524  13.379  19.891  11.955
  190ETHO   H21 1525  13.307  19.884  12.039
  190ETHO   H23 1526  13.392  19.996  11.922
  191ETHO    O1 1527  13.506  19.833  11.976
  191ETHO    C1 1528  13.505  19.703  12.030
  191ETHO   H11 1529  13.563  19.712  12.125
  191ETHO   H13 1530  13.401  19.672  12.054
  191ETHO    C2 1531  13.572  19.594  11.938
  191ETHO   H21 1532  13.524  19.607  11.839
  191ETHO   H23 1533  13.539  19.499  11.985
  192ETHO    O1 1534  13.714  19.589  11.918
  192ETHO    C1 1535  13.745  19.474  11.843
  192ETHO   H11 1536  13.676  19.392  11.874
  192ETHO   H13 1537  13.849  19.451  11.877
  192ETHO    C2 1538  13.751  19.489  11.690
  192ETHO   H21 1539  13.653  19.535  11.663
  192ETHO   H23 1540  13.761  19.388  11.646
  193ETHO    O1 1541  13.855  19.570  11.651
  193ETHO    C1 1542  13.836  19.632  11.525
  193ETHO   H11 1543  13.847  19.552  11.449
  193ETHO   H13 1544  13.734  19.676  11.526
  193ETHO    C2 1545  13.934  19.737  11.498
  193ETHO   H21 1546  13.958  19.743  11.390
  193ETHO   H23 1547  14.024  19.703  11.553
  194ETHO    O1 1548  13.880  19.862  11.534
  194ETHO    C1 1549  13.975  19.963  11.541
  194ETHO   H11 1550  13.977  20.020  11.446
  194ETHO   H13 1551  14.076  19.920  11.557
  194ETHO    C2 1552  13.962  20.072  11.647
  194ETHO   H21 1553  13.940  20.014  11.738
  194ETHO   H23 1554  13.867  20.127  11.629
  195ETHO    O1 1555  14.068  20.156  11.658
  195ETHO    C1 1556  14.036  20.262  11.750
  195ETHO   H11 1557  14.084  20.355  11.711
  195ETHO   H13 1558  13.930  20.294  11.755
  195ETHO    C2 1559  14.059  20.233  11.901
  195ETHO   H21 1560  14.053  20.328  11.958
  195ETHO   H23 1561  14.163  20.198  11.914
  196ETHO    O1 1562  13.969  20.140  11.966
  196ETHO    C1 1563  13.958  20.152  12.107
  196ETHO   H11 1564  14.058  20.143  12.156
  196ETHO   H13 1565  13.922  20.255  12.127
  196ETHO    C2 1566  13.866  20.044  12.156
  196ETHO   H21 1567  13.775  20.050  12.093
  196ETHO   H23 1568  13.841  20.069  12.262
  197ETHO    O1 1569  13.924  19.917  12.145
  197ETHO    C1 1570  13.828  19.820  12.202
  197ETHO   H11 1571  13.825  19.822  12.313
  197ETHO   H13 1572  13.727  19.840  12.158
  197ETHO    C2 1573  13.874  19.680  12.165
  197ETHO   H21 1574  13.910  19.678  12.060
  197ETHO   H23 1575  13.788  19.609  12.169
  198ETHO    O1 1576  13.980  19.634  12.249
  198ETHO    C1 1577  14.009  19.497  12.225
  198ETHO   H11 1578  13.945  19.426  12.281
  198ETHO   H13 1579  14.004  19.465  12.118
  198ETHO    C2 1580  14.153  19.465  12.249
  198ETHO   H21 1581  14.228  19.536  12.209
  198ETHO   H23 1582  14.161  19.361  12.210
  199ETHO    O1 1583  14.169  19.459  12.392
  199ETHO    C1 1584  14.295  19.416  12.436
  199ETHO   H11 1585  14.341  19.491  12.504
  199ETHO   H13 1586  14.356  19.397  12.346
  199ETHO    C2 1587  14.284  19.279  12.514
  199ETHO   H21 1588  14.212  19.294  12.598
  199ETHO   H23 1589  14.387  19.273  12.554
  200ETHO    O1 1590  14.259  19.170  12.429
  200ETHO    C1 1591  14.382  19.134  12.359
  200ETHO   H11 1592  14.353  19.065  12.277
  200ETHO   H13 1593  14.424  19.216  12.298
  200ETHO    C2 1594  14.487  19.057  12.433
  200ETHO   H21 1595  14.531  19.120  12.513
  200ETHO   H23 1596  14.558  19.026  12.354
  201ETHO    O1 1597  14.432  18.942  12.488
  201ETHO    C1 1598  14.520  18.894  12.596
  201ETHO   H11 1599  14.550  18.971  12.669
  201ETHO   H13 1600  14.621  18.875  12.553
  201ETHO    C2 1601  14.467  18.764  12.679
  201ETHO   H21 1602  14.545  18.739  12.754
  201ETHO   H23 1603  14.439  18.690  12.601
  202ETHO    O1 1604  14.344  18.814  12.737
  202ETHO    C1 1605  14.269  18.709  12.788
  202ETHO   H11 1606  14.276  18.628  12.712
  202ETHO   H13 1607  14.308  18.678  12.887
  202ETHO    C2 1608  14.119  18.757  12.806
  202ETHO   H21 1609  14.067  18.660  12.817
  202ETHO   H23 1610  14.083  18.816  12.719
  203ETHO    O1 1611  14.100  18.834  12.927
  203ETHO    C1 1612  13.963  18.858  12.942
  203ETHO   H11 1613  13.913  18.760  12.953
  203ETHO   H13 1614  13.921  18.906  12.851
  203ETHO    C2 1615  13.938  18.942  13.066
  203ETHO   H21 1616  13.828  18.952  13.079
  203ETHO   H23 1617  13.982  19.043  13.048
  204ETHO    O1 1618  13.980  18.883  13.185
  204ETHO    C1 1619  13.973  18.967  13.295
  204ETHO   H11 1620  14.052  19.044  13.285
  204ETHO   H13 1621  13.877  19.023  13.292
  204ETHO    C2 1622  14.005  18.898  13.428
  204ETHO   H21 1623  13.991  18.965  13.515
  204ETHO   H23 1624  14.111  18.863  13.423
  205ETHO    O1 1625  13.913  18.803  13.456
  205ETHO    C1 1626  13.933  18.732  13.572
  205ETHO   H11 1627  13.942  18.805  13.655
  205ETHO   H13 1628  14.023  18.672  13.549
  205ETHO    C2 1629  13.830  18.626  13.618
  205ETHO   H21 1630  13.732  18.672  13.642
  205ETHO   H23 1631  13.866  18.575  13.710
  206ETHO    O1 1632  13.795  18.533  13.516
  206ETHO    C1 1633  13.693  18.450  13.565
  206ETHO   H11 1634  13.734  18.391  13.650
  206ETHO   H13 1635  13.608  18.511  13.602
  206ETHO    C2 1636  13.646  18.362  13.446
  206ETHO   H21 1637  13.732  18.300  13.412
  206ETHO   H23 1638  13.568  18.291  13.482
  207ETHO    O1 1639  13.616  18.434  13.322
  207ETHO    C1 1640  13.493  18.503  13.340
  207ETHO   H11 1641  13.493  18.576  13.424
  207ETHO   H13 1642  13.423  18.422  13.370
  207ETHO    C2 1643  13.449  18.569  13.220
  207ETHO   H21 1644  13.338  18.577  13.219
  207ETHO   H23 1645  13.472  18.512  13.128
  208ETHO    O1 1646  13.518  18.687  13.204
  208ETHO    C1 1647  13.480  18.746  13.077
  208ETHO   H11 1648  13.562  18.734  13.003
  208ETHO   H13 1649  13.384  18.704  13.041
  208ETHO    C2 1650  13.439  18.897  13.091
  208ETHO   H21 1651  13.424  18.931  13.195
  208ETHO   H23 1652  13.348  18.929  13.035
  209ETHO    O1 1653  13.556  18.967  13.048
  209ETHO    C1 1654  13.529  19.102  13.013
  209ETHO   H11 1655  13.498  19.169  13.096
  209ETHO   H13 1656  13.452  19.123  12.935
  209ETHO    C2 1657  13.661  19.165  12.962
  209ETHO   H21 1658  13.738  19.165  13.042
  209ETHO   H23 1659  13.635  19.271  12.938
  210ETHO    O1 1660  13.700  19.099  12.845
  210ETHO    C1 1661  13.802  19.173  12.784
  210ETHO   H11 1662  13.854  19.233  12.861
  210ETHO   H13 1663  13.879  19.118  12.726
  210ETHO    C2 1664  13.758  19.285  12.681
  210ETHO   H21 1665  13.849  19.346  12.663
  210ETHO   H23 1666  13.688  19.357  12.728
  211ETHO    O1 1667  13.707  19.239  12.554
  211ETHO    C1 1668  13.688  19.356  12.478
  211ETHO   H11 1669  13.617  19.418  12.537
  211ETHO   H13 1670  13.780  19.417  12.465
  211ETHO    C2 1671  13.630  19.311  12.340
  211ETHO   H21 1672  13.609  19.408  12.289
  211ETHO   H23 1673  13.534  19.256  12.335
  212ETHO    O1 1674  13.722  19.232  12.267
  212ETHO    C1 1675  13.697  19.214  12.128
  212ETHO   H11 1676  13.610  19.145  12.120
  212ETHO   H13 1677  13.660  19.311  12.089
  212ETHO    C2 1678  13.814  19.151  12.057
  212ETHO   H21 1679  13.773  19.107  11.964
  212ETHO   H23 1680  13.870  19.066  12.102
  213ETHO    O1 1681  13.917  19.243  12.025
  213ETHO    C1 1682  14.004  19.198  11.920
  213ETHO   H11 1683  14.033  19.091  11.918
  213ETHO   H13 1684  13.960  19.209  11.819
  213ETHO    C2 1685  14.127  19.298  11.910
  213ETHO   H21 1686  14.101  19.405  11.926
  213ETHO   H23 1687  14.164  19.308  11.806
  214ETHO    O1 1688  14.221  19.260  12.008
  214ETHO    C1 1689  14.351  19.268  11.965
  214ETHO   H11 1690  14.353  19.229  11.862
  214ETHO   H13 1691  14.415  19.205  12.030
  214ETHO    C2 1692  14.396  19.413  11.979
  214ETHO   H21 1693  14.319  19.484  11.941
  214ETHO   H23 1694  14.481  19.417  11.907
  215ETHO    O1 1695  14.446  19.467  12.099
  215ETHO    C1 1696  14.511  19.595  12.080
  215ETHO   H11 1697  14.609  19.591  12.028
  215ETHO   H13 1698  14.444  19.669  12.031
  215ETHO    C2 1699  14.553  19.644  12.220
  215ETHO   H21 1700  14.461  19.658  12.281
  215ETHO   H23 1701  14.604  19.741  12.203
  216ETHO    O1 1702  14.648  19.557  12.281
  216ETHO    C1 1703  14.666  19.574  12.417
  216ETHO   H11 1704  14.699  19.482  12.469
  216ETHO   H13 1705  14.568  19.586  12.468
  216ETHO    C2 1706  14.756  19.691  12.456
  216ETHO   H21 1707  14.737  19.721  12.562
  216ETHO   H23 1708  14.716  19.781  12.404
  217ETHO    O1 1709  14.891  19.674  12.423
  217ETHO    C1 1710  14.973  19.750  12.517
  217ETHO   H11 1711  14.937  19.730  12.620
  217ETHO   H13 1712  15.076  19.710  12.501
  217ETHO    C2 1713  15.002  19.908  12.493
  217ETHO   H21 1714  15.012  19.920  12.382
  217ETHO   H23 1715  15.086  19.947  12.553
  218ETHO    O1 1716  14.886  19.981  12.519
  218ETHO    C1 1717  14.878  20.012  12.659
  218ETHO   H11 1718  14.930  19.939  12.724
  218ETHO   H13 1719  14.771  20.011  12.690
  218ETHO    C2 1720  14.947  20.143  12.705
  218ETHO   H21 1721  14.908  20.166  12.807
  218ETHO   H23 1722  14.911  20.227  12.642
  219ETHO    O1 1723  15.089  20.147  12.711
  219ETHO    C1 1724  15.129  20.268  12.770
  219ETHO   H11 1725  15.078  20.287  12.866
  219ETHO   H13 1726  15.237  20.259  12.793
  219ETHO    C2 1727  15.116  20.399  12.690
  219ETHO   H21 1728  15.169  20.376  12.595
  219ETHO   H23 1729  15.170  20.475  12.750
  220ETHO    O1 1730  14.983  20.447  12.671
  220ETHO    C1 1731  14.965  20.578  12.625
  220ETHO   H11 1732  14.872  20.591  12.565
  220ETHO   H13 1733  15.057  20.602  12.566
  220ETHO    C2 1734  14.962  20.663  12.751
  220ETHO   H21 1735  15.011  20.759  12.722
  220ETHO   H23 1736  15.015  20.617  12.837
  221ETHO    O1 1737  14.814  20.670  12.770
  221ETHO    C1 1738  14.776  20.792  12.832
  221ETHO   H11 1739  14.819  20.796  12.934
  221ETHO   H13 1740  14.828  20.879  12.787
  221ETHO    C2 1741  14.621  20.793  12.865
  221ETHO   H21 1742  14.567  20.767  12.772
  221ETHO   H23 1743  14.597  20.897  12.894
  222ETHO    O1 1744  14.594  20.693  12.957
  222ETHO    C1 1745  14.458  20.665  12.967
  222ETHO   H11 1746  14.421  20.658  12.863
  222ETHO   H13 1747  14.446  20.574  13.030
  222ETHO    C2 1748  14.381  20.778  13.031
  222ETHO   H21 1749  14.348  20.851  12.955
  222ETHO   H23 1750  14.449  20.829  13.103
  223ETHO    O1 1751  14.265  20.729  13.090
  223ETHO    C1 1752  14.183  20.836  13.156
  223ETHO   H11 1753  14.254  20.893  13.220
  223ETHO   H13 1754  14.147  20.907  13.079
  223ETHO    C2 1755  14.064  20.787  13.244
  223ETHO   H21 1756  14.030  20.870  13.308
  223ETHO   H23 1757  14.111  20.720  13.320
  224ETHO    O1 1758  13.967  20.720  13.174
  224ETHO    C1 1759  13.877  20.649  13.266
  224ETHO   H11 1760  13.937  20.608  13.350
  224ETHO   H13 1761  13.800  20.720  13.301
  224ETHO    C2 1762  13.787  20.549  13.191
  224ETHO   H21 1763  13.725  20.499  13.269
  224ETHO   H23 1764  13.847  20.471  13.139
  225ETHO    O1 1765  13.692  20.612  13.104
  225ETHO    C1 1766  13.715  20.588  12.965
  225ETHO   H11 1767  13.719  20.477  12.957
  225ETHO   H13 1768  13.817  20.629  12.950
  225ETHO    C2 1769  13.607  20.629  12.859
  225ETHO   H21 1770  13.506  20.588  12.879
  225ETHO   H23 1771  13.636  20.599  12.757
  226ETHO    O1 1772  13.579  20.770  12.843
  226ETHO    C1 1773  13.487  20.799  12.732
  226ETHO   H11 1774  13.527  20.772  12.632
  226ETHO   H13 1775  13.388  20.750  12.735
  226ETHO    C2 1776  13.464  20.954  12.747
  226ETHO   H21 1777  13.409  20.992  12.658
  226ETHO   H23 1778  13.560  21.008  12.753
  227ETHO    O1 1779  13.379  20.975  12.860
  227ETHO    C1 1780  13.362  21.119  12.890
  227ETHO   H11 1781  13.312  21.181  12.813
  227ETHO   H13 1782  13.461  21.169  12.900
  227ETHO    C2 1783  13.272  21.143  13.014
  227ETHO   H21 1784  13.280  21.248  13.048
  227ETHO   H23 1785  13.298  21.077  13.101
  228ETHO    O1 1786  13.136  21.111  12.996
  228ETHO    C1 1787  13.043  21.144  13.101
  228ETHO   H11 1788  13.055  21.245  13.144
  228ETHO   H13 1789  12.946  21.150  13.046
  228ETHO    C2 1790  13.039  21.035  13.210
  228ETHO   H21 1791  13.063  20.935  13.167
  228ETHO   H23 1792  12.937  21.037  13.256
  229ETHO    O1 1793  13.136  21.060  13.313
  229ETHO    C1 1794  13.178  20.943  13.383
  229ETHO   H11 1795  13.219  20.870  13.310
  229ETHO   H13 1796  13.086  20.903  13.429
  229ETHO    C2 1797  13.269  20.963  13.511
  229ETHO   H21 1798  13.361  21.022  13.494
  229ETHO   H23 1799  13.304  20.864  13.549
  230ETHO    O1 1800  13.205  21.035  13.617
  230ETHO    C1 1801  13.268  21.018  13.746
  230ETHO   H11 1802  13.255  20.913  13.779
  230ETHO   H13 1803  13.378  21.035  13.739
  230ETHO    C2 1804  13.215  21.130  13.841
  230ETHO   H21 1805  13.116  21.095  13.878
  230ETHO   H23 1806  13.198  21.222  13.780
  231ETHO    O1 1807  13.304  21.156  13.950
  231ETHO    C1 1808  13.386  21.268  13.927
  231ETHO   H11 1809  13.321  21.348  13.886
  231ETHO   H13 1810  13.446  21.239  13.839
  231ETHO    C2 1811  13.457  21.315  14.046
  231ETHO   H21 1812  13.558  21.269  14.056
  231ETHO   H23 1813  13.390  21.305  14.135
  232ETHO    O1 1814  13.462  21.459  14.021
  232ETHO    C1 1815  13.488  21.524  14.145
  232ETHO   H11 1816  13.454  21.630  14.143
  232ETHO   H13 1817  13.433  21.472  14.227
  232ETHO    C2 1818  13.639  21.532  14.168
  232ETHO   H21 1819  13.691  21.433  14.166
  232ETHO   H23 1820  13.648  21.588  14.263
  233ETHO    O1 1821  13.701  21.607  14.065
  233ETHO    C1 1822  13.840  21.580  14.066
  233ETHO   H11 1823  13.878  21.562  14.169
  233ETHO   H13 1824  13.873  21.498  13.999
  233ETHO    C2 1825  13.914  21.705  14.024
  233ETHO   H21 1826  14.020  21.703  14.056
  233ETHO   H23 1827  13.877  21.777  14.101
  234ETHO    O1 1828  13.909  21.742  13.886
  234ETHO    C1 1829  13.966  21.872  13.874
  234ETHO   H11 1830  13.896  21.938  13.929
  234ETHO   H13 1831  14.063  21.882  13.929
  234ETHO    C2 1832  13.985  21.937  13.727
  234ETHO   H21 1833  14.031  21.860  13.662
  234ETHO   H23 1834  14.058  22.019  13.745
  235ETHO    O1 1835  13.870  21.991  13.665
  235ETHO    C1 1836  13.899  22.042  13.533
  235ETHO   H11 1837  13.975  22.120  13.556
  235ETHO   H13 1838  13.951  21.961  13.477
  235ETHO    C2 1839  13.781  22.083  13.448
  235ETHO   H21 1840  13.719  21.990  13.448
  235ETHO   H23 1841  13.808  22.102  13.341
  236ETHO    O1 1842  13.706  22.196  13.486
  236ETHO    C1 1843  13.787  22.317  13.467
  236ETHO   H11 1844  13.807  22.327  13.358
  236ETHO   H13 1845  13.886  22.306  13.515
  236ETHO    C2 1846  13.718  22.448  13.521
  236ETHO   H21 1847  13.806  22.515  13.530
  236ETHO   H23 1848  13.676  22.455  13.623
  237ETHO    O1 1849  13.628  22.500  13.428
  237ETHO    C1 1850  13.593  22.634  13.467
  237ETHO   H11 1851  13.535  22.640  13.562
  237ETHO   H13 1852  13.690  22.689  13.472
  237ETHO    C2 1853  13.518  22.702  13.350
  237ETHO   H21 1854  13.480  22.802  13.379
  237ETHO   H23 1855  13.429  22.641  13.323
  238ETHO    O1 1856  13.603  22.721  13.237
  238ETHO    C1 1857  13.529  22.774  13.121
  238ETHO   H11 1858  13.445  22.839  13.154
  238ETHO   H13 1859  13.490  22.686  13.066
  238ETHO    C2 1860  13.625  22.868  13.047
  238ETHO   H21 1861  13.586  22.881  12.944
  238ETHO   H23 1862  13.715  22.803  13.043
  239ETHO    O1 1863  13.652  22.989  13.111
  239ETHO    C1 1864  13.671  23.088  13.018
  239ETHO   H11 1865  13.754  23.069  12.948
  239ETHO   H13 1866  13.591  23.114  12.946
  239ETHO    C2 1867  13.715  23.218  13.102
  239ETHO   H21 1868  13.700  23.310  13.041
  239ETHO   H23 1869  13.645  23.224  13.187
  240ETHO    O1 1870  13.848  23.220  13.142
  240ETHO    C1 1871  13.882  23.346  13.204
  240ETHO   H11 1872  13.855  23.336  13.312
  240ETHO   H13 1873  13.842  23.442  13.168
  240ETHO    C2 1874  14.036  23.362  13.176
  240ETHO   H21 1875  14.080  23.261  13.189
  240ETHO   H23 1876  14.076  23.435  13.249
  241ETHO    O1 1877  14.073  23.397  13.037
  241ETHO    C1 1878  14.210  23.437  13.027
  241ETHO   H11 1879  14.209  23.530  13.088
  241ETHO   H13 1880  14.275  23.364  13.080
  241ETHO    C2 1881  14.252  23.460  12.883
  241ETHO   H21 1882  14.355  23.499  12.893
  241ETHO   H23 1883  14.190  23.535  12.829
  242ETHO    O1 1884  14.258  23.335  12.810
  242ETHO    C1 1885  14.245  23.369  12.666
  242ETHO   H11 1886  14.309  23.455  12.636
  242ETHO   H13 1887  14.138  23.395  12.658
  242ETHO    C2 1888  14.281  23.242  12.584
  242ETHO   H21 1889  14.276  23.265  12.475
  242ETHO   H23 1890  14.206  23.163  12.606
  243ETHO    O1 1891  14.401  23.183  12.619
  243ETHO    C1 1892  14.511  23.270  12.578
  243ETHO   H11 1893  14.489  23.322  12.483
  243ETHO   H13 1894  14.511  23.356  12.648
  243ETHO    C2 1895  14.629  23.175  12.568
  243ETHO   H21 1896  14.653  23.120  12.662
  243ETHO   H23 1897  14.718  23.234  12.538
  244ETHO    O1 1898  14.626  23.079  12.457
  244ETHO    C1 1899  14.744  22.990  12.455
  244ETHO   H11 1900  14.800  22.994  12.552
  244ETHO   H13 1901  14.819  23.033  12.385
  244ETHO    C2 1902  14.707  22.843  12.418
  244ETHO   H21 1903  14.790  22.769  12.419
  244ETHO   H23 1904  14.660  22.847  12.317
  245ETHO    O1 1905  14.606  22.796  12.509
  245ETHO    C1 1906  14.665  22.742  12.626
  245ETHO   H11 1907  14.737  22.664  12.594
  245ETHO   H13 1908  14.723  22.823  12.675
  245ETHO    C2 1909  14.569  22.697  12.734
  245ETHO   H21 1910  14.503  22.781  12.764
  245ETHO   H23 1911  14.619  22.671  12.830
  246ETHO    O1 1912  14.491  22.583  12.697
  246ETHO    C1 1913  14.379  22.568  12.788
  246ETHO   H11 1914  14.326  22.663  12.810
  246ETHO   H13 1915  14.421  22.532  12.885
  246ETHO    C2 1916  14.282  22.472  12.726
  246ETHO   H21 1917  14.204  22.452  12.802
  246ETHO   H23 1918  14.338  22.379  12.706
  247ETHO    O1 1919  14.207  22.520  12.611
  247ETHO    C1 1920  14.090  22.601  12.648
  247ETHO   H11 1921  14.034  22.555  12.732
  247ETHO   H13 1922  14.118  22.699  12.692
  247ETHO    C2 1923  13.992  22.621  12.524
  247ETHO   H21 1924  13.913  22.693  12.554
  247ETHO   H23 1925  14.059  22.667  12.448
  248ETHO    O1 1926  13.939  22.489  12.489
  248ETHO    C1 1927  13.825  22.504  12.396
  248ETHO   H11 1928  13.735  22.550  12.443
  248ETHO   H13 1929  13.858  22.563  12.308
  248ETHO    C2 1930  13.790  22.362  12.353
  248ETHO   H21 1931  13.888  22.317  12.326
  248ETHO   H23 1932  13.718  22.371  12.270
  249ETHO    O1 1933  13.738  22.285  12.461
  249ETHO    C1 1934  13.696  22.153  12.415
  249ETHO   H11 1935  13.620  22.147  12.335
  249ETHO   H13 1936  13.788  22.099  12.385
  249ETHO    C2 1937  13.649  22.072  12.539
  249ETHO   H21 1938  13.626  21.968  12.508
  249ETHO   H23 1939  13.553  22.126  12.558
  250ETHO    O1 1940  13.739  22.066  12.651
  250ETHO    C1 1941  13.676  22.012  12.769
  250ETHO   H11 1942  13.566  22.009  12.752
  250ETHO   H13 1943  13.730  21.917  12.787
  250ETHO    C2 1944  13.717  22.095  12.888
  250ETHO   H21 1945  13.820  22.133  12.870
  250ETHO   H23 1946  13.735  22.032  12.978
  251ETHO    O1 1947  13.637  22.216  12.912
  251ETHO    C1 1948  13.671  22.277  13.035
  251ETHO   H11 1949  13.782  22.271  13.041
  251ETHO   H13 1950  13.644  22.221  13.127
  251ETHO    C2 1951  13.594  22.415  13.043
  251ETHO   H21 1952  13.633  22.484  12.966
  251ETHO   H23 1953  13.624  22.464  13.139
  252ETHO    O1 1954  13.454  22.404  13.055
  252ETHO    C1 1955  13.390  22.383  12.935
  252ETHO   H11 1956  13.433  22.432  12.845
  252ETHO   H13 1957  13.405  22.274  12.921
  252ETHO    C2 1958  13.251  22.431  12.968
  252ETHO   H21 1959  13.220  22.394  13.068
  252ETHO   H23 1960  13.188  22.398  12.882
  253ETHO    O1 1961  13.253  22.575  12.957
  253ETHO    C1 1962  13.126  22.632  12.950
  253ETHO   H11 1963  13.071  22.581  13.033
  253ETHO   H13 1964  13.073  22.598  12.858
  253ETHO    C2 1965  13.144  22.776  12.986
  253ETHO   H21 1966  13.231  22.790  13.053
  253ETHO   H23 1967  13.054  22.821  13.033
  254ETHO    O1 1968  13.166  22.845  12.864
  254ETHO    C1 1969  13.230  22.971  12.875
  254ETHO   H11 1970  13.179  23.026  12.957
  254ETHO   H13 1971  13.335  22.952  12.904
  254ETHO    C2 1972  13.242  23.041  12.738
  254ETHO   H21 1973  13.287  23.142  12.748
  254ETHO   H23 1974  13.141  23.047  12.691
  255ETHO    O1 1975  13.313  22.954  12.651
  255ETHO    C1 1976  13.340  23.013  12.528
  255ETHO   H11 1977  13.392  23.110  12.545
  255ETHO   H13 1978  13.236  23.031  12.493
  255ETHO    C2 1979  13.410  22.903  12.440
  255ETHO   H21 1980  13.473  22.833  12.498
  255ETHO   H23 1981  13.473  22.956  12.365
  256ETHO    O1 1982  13.313  22.823  12.368
  256ETHO    C1 1983  13.375  22.740  12.272
  256ETHO   H11 1984  13.401  22.799  12.182
  256ETHO   H13 1985  13.475  22.715  12.314
  256ETHO    C2 1986  13.294  22.617  12.249
  256ETHO   H21 1987  13.359  22.564  12.177
  256ETHO   H23 1988  13.190  22.632  12.212
  257ETHO    O1 1989  13.269  22.539  12.366
  257ETHO    C1 1990  13.386  22.486  12.425
  257ETHO   H11 1991  13.457  22.561  12.466
  257ETHO   H13 1992  13.436  22.422  12.349
  257ETHO    C2 1993  13.336  22.393  12.537
  257ETHO   H21 1994  13.279  22.450  12.613
  257ETHO   H23 1995  13.427  22.350  12.585
  258ETHO    O1 1996  13.254  22.287  12.494
  258ETHO    C1 1997  13.199  22.214  12.606
  258ETHO   H11 1998  13.280  22.185  12.676
  258ETHO   H13 1999  13.142  22.285  12.670
  258ETHO    C2 2000  13.099  22.099  12.576
  258ETHO   H21 2001  13.027  22.123  12.495
  258ETHO   H23 2002  13.037  22.081  12.666
  259ETHO    O1 2003  13.150  21.971  12.544
  259ETHO    C1 2004  13.225  21.969  12.418
  259ETHO   H11 2005  13.163  21.997  12.330
  259ETHO   H13 2006  13.310  22.041  12.426
  259ETHO    C2 2007  13.303  21.839  12.392
  259ETHO   H21 2008  13.363  21.862  12.301
  259ETHO   H23 2009  13.233  21.754  12.375
  260ETHO    O1 2010  13.379  21.816  12.505
  260ETHO    C1 2011  13.439  21.681  12.511
  260ETHO   H11 2012  13.452  21.650  12.406
  260ETHO   H13 2013  13.534  21.705  12.565
  260ETHO    C2 2014  13.338  21.581  12.569
  260ETHO   H21 2015  13.375  21.479  12.546
  260ETHO   H23 2016  13.242  21.587  12.513
  261ETHO    O1 2017  13.314  21.582  12.705
  261ETHO    C1 2018  13.223  21.488  12.752
  261ETHO   H11 2019  13.120  21.510  12.715
  261ETHO   H13 2020  13.242  21.383  12.720
  261ETHO    C2 2021  13.226  21.492  12.903
  261ETHO   H21 2022  13.329  21.508  12.942
  261ETHO   H23 2023  13.192  21.401  12.957
  262ETHO    O1 2024  13.144  21.596  12.940
  262ETHO    C1 2025  13.199  21.658  13.060
  262ETHO   H11 2026  13.297  21.709  13.051
  262ETHO   H13 2027  13.200  21.581  13.140
  262ETHO    C2 2028  13.086  21.757  13.104
  262ETHO   H21 2029  13.058  21.818  13.015
  262ETHO   H23 2030  13.135  21.800  13.194
  263ETHO    O1 2031  12.976  21.679  13.147
  263ETHO    C1 2032  12.914  21.745  13.254
  263ETHO   H11 2033  12.893  21.847  13.217
  263ETHO   H13 2034  12.980  21.748  13.343
  263ETHO    C2 2035  12.780  21.688  13.287
  263ETHO   H21 2036  12.734  21.656  13.191
  263ETHO   H23 2037  12.702  21.754  13.331
  264ETHO    O1 2038  12.795  21.592  13.388
  264ETHO    C1 2039  12.666  21.551  13.429
  264ETHO   H11 2040  12.621  21.506  13.338
  264ETHO   H13 2041  12.603  21.635  13.464
  264ETHO    C2 2042  12.688  21.439  13.524
  264ETHO   H21 2043  12.754  21.366  13.472
  264ETHO   H23 2044  12.593  21.389  13.553
  265ETHO    O1 2045  12.744  21.487  13.648
  265ETHO    C1 2046  12.883  21.451  13.667
  265ETHO   H11 2047  12.884  21.340  13.682
  265ETHO   H13 2048  12.939  21.476  13.575
  265ETHO    C2 2049  12.936  21.528  13.783
  265ETHO   H21 2050  12.921  21.637  13.764
  265ETHO   H23 2051  13.042  21.500  13.800
  265ETHO    OZ 2052  12.864  21.498  13.905
  265ETHO   HZ1 2053  12.897  21.556  13.975
    1ETHO    O1 2054   9.636  21.510  11.103
    1ETHO   HO1 2055   9.550  21.549  11.119
    1ETHO    C1 2056   9.727  21.615  11.109
    1ETHO   H11 2057   9.715  21.668  11.206
    1ETHO   H13 2058   9.699  21.693  11.036
    1ETHO    C2 2059   9.868  21.570  11.085
    1ETHO   H21 2060   9.933  21.657  11.065
    1ETHO   H23 2061   9.871  21.506  10.994
    2ETHO    O1 2062   9.928  21.493  11.192
    2ETHO    C1 2063  10.068  21.474  11.159
    2ETHO   H11 2064  10.087  21.459  11.050
    2ETHO   H13 2065  10.133  21.559  11.186
    2ETHO    C2 2066  10.113  21.345  11.229
    2ETHO   H21 2067  10.210  21.309  11.187
    2ETHO   H23 2068  10.032  21.270  11.222
    3ETHO    O1 2069  10.139  21.378  11.362
    3ETHO    C1 2070  10.173  21.263  11.426
    3ETHO   H11 2071  10.260  21.293  11.488
    3ETHO   H13 2072  10.198  21.172  11.368
    3ETHO    C2 2073  10.060  21.228  11.521
    3ETHO   H21 2074  10.089  21.127  11.558
    3ETHO   H23 2075   9.958  21.226  11.478
    4ETHO    O1 2076  10.080  21.310  11.634
    4ETHO    C1 2077   9.952  21.318  11.710
    4ETHO   H11 2078   9.871  21.347  11.639
    4ETHO   H13 2079   9.912  21.220  11.744
    4ETHO    C2 2080   9.947  21.428  11.821
    4ETHO   H21 2081   9.838  21.432  11.839
    4ETHO   H23 2082   9.992  21.520  11.776
    5ETHO    O1 2083  10.011  21.381  11.934
    5ETHO    C1 2084  10.023  21.490  12.021
    5ETHO   H11 2085  10.072  21.570  11.961
    5ETHO   H13 2086   9.929  21.525  12.067
    5ETHO    C2 2087  10.120  21.462  12.136
    5ETHO   H21 2088  10.094  21.362  12.177
    5ETHO   H23 2089  10.105  21.530  12.222
    6ETHO    O1 2090  10.244  21.458  12.079
    6ETHO    C1 2091  10.348  21.461  12.175
    6ETHO   H11 2092  10.337  21.547  12.245
    6ETHO   H13 2093  10.361  21.365  12.229
    6ETHO    C2 2094  10.481  21.469  12.096
    6ETHO   H21 2095  10.470  21.400  12.010
    6ETHO   H23 2096  10.553  21.424  12.168
    7ETHO    O1 2097  10.530  21.602  12.066
    7ETHO    C1 2098  10.461  21.658  11.951
    7ETHO   H11 2099  10.443  21.576  11.878
    7ETHO   H13 2100  10.363  21.703  11.979
    7ETHO    C2 2101  10.551  21.767  11.894
    7ETHO   H21 2102  10.503  21.803  11.801
    7ETHO   H23 2103  10.654  21.732  11.875
    8ETHO    O1 2104  10.547  21.874  11.984
    8ETHO    C1 2105  10.616  21.992  11.937
    8ETHO   H11 2106  10.618  22.061  12.024
    8ETHO   H13 2107  10.555  22.056  11.869
    8ETHO    C2 2108  10.762  21.977  11.898
    8ETHO   H21 2109  10.807  21.901  11.966
    8ETHO   H23 2110  10.814  22.074  11.903
    9ETHO    O1 2111  10.789  21.925  11.764
    9ETHO    C1 2112  10.763  22.024  11.664
    9ETHO   H11 2113  10.660  22.061  11.683
    9ETHO   H13 2114  10.841  22.102  11.679
    9ETHO    C2 2115  10.774  21.969  11.520
    9ETHO   H21 2116  10.867  21.914  11.493
    9ETHO   H23 2117  10.769  22.062  11.458
   10ETHO    O1 2118  10.660  21.883  11.479
   10ETHO    C1 2119  10.669  21.749  11.525
   10ETHO   H11 2120  10.683  21.752  11.635
   10ETHO   H13 2121  10.758  21.697  11.482
   10ETHO    C2 2122  10.554  21.651  11.492
   10ETHO   H21 2123  10.457  21.704  11.499
   10ETHO   H23 2124  10.573  21.570  11.566
   11ETHO    O1 2125  10.571  21.608  11.361
   11ETHO    C1 2126  10.459  21.529  11.325
   11ETHO   H11 2127  10.445  21.444  11.395
   11ETHO   H13 2128  10.367  21.589  11.313
   11ETHO    C2 2129  10.492  21.482  11.183
   11ETHO   H21 2130  10.402  21.437  11.136
   11ETHO   H23 2131  10.526  21.568  11.122
   12ETHO    O1 2132  10.596  21.383  11.190
   12ETHO    C1 2133  10.662  21.343  11.074
   12ETHO   H11 2134  10.725  21.429  11.044
   12ETHO   H13 2135  10.587  21.325  10.994
   12ETHO    C2 2136  10.761  21.225  11.086
   12ETHO   H21 2137  10.826  21.244  11.174
   12ETHO   H23 2138  10.821  21.220  10.993
   13ETHO    O1 2139  10.696  21.098  11.106
   13ETHO    C1 2140  10.789  21.000  11.155
   13ETHO   H11 2141  10.850  20.955  11.073
   13ETHO   H13 2142  10.860  21.052  11.222
   13ETHO    C2 2143  10.714  20.878  11.209
   13ETHO   H21 2144  10.778  20.793  11.242
   13ETHO   H23 2145  10.628  20.857  11.141
   14ETHO    O1 2146  10.652  20.924  11.332
   14ETHO    C1 2147  10.595  20.818  11.411
   14ETHO   H11 2148  10.680  20.764  11.459
   14ETHO   H13 2149  10.550  20.742  11.344
   14ETHO    C2 2150  10.502  20.880  11.508
   14ETHO   H21 2151  10.443  20.798  11.554
   14ETHO   H23 2152  10.435  20.949  11.453
   15ETHO    O1 2153  10.555  20.945  11.621
   15ETHO    C1 2154  10.469  21.050  11.662
   15ETHO   H11 2155  10.503  21.096  11.757
   15ETHO   H13 2156  10.457  21.124  11.580
   15ETHO    C2 2157  10.325  21.005  11.713
   15ETHO   H21 2158  10.262  21.097  11.708
   15ETHO   H23 2159  10.285  20.931  11.641
   16ETHO    O1 2160  10.315  20.949  11.845
   16ETHO    C1 2161  10.181  20.931  11.883
   16ETHO   H11 2162  10.111  21.012  11.854
   16ETHO   H13 2163  10.139  20.844  11.828
   16ETHO    C2 2164  10.159  20.900  12.028
   16ETHO   H21 2165  10.061  20.942  12.059
   16ETHO   H23 2166  10.235  20.959  12.084
   17ETHO    O1 2167  10.171  20.763  12.054
   17ETHO    C1 2168  10.155  20.732  12.192
   17ETHO   H11 2169  10.235  20.788  12.245
   17ETHO   H13 2170  10.055  20.772  12.217
   17ETHO    C2 2171  10.156  20.574  12.206
   17ETHO   H21 2172  10.092  20.517  12.135
   17ETHO   H23 2173  10.106  20.557  12.303
   18ETHO    O1 2174  10.292  20.530  12.211
   18ETHO    C1 2175  10.305  20.391  12.190
   18ETHO   H11 2176  10.225  20.340  12.248
   18ETHO   H13 2177  10.267  20.371  12.087
   18ETHO    C2 2178  10.448  20.334  12.181
   18ETHO   H21 2179  10.480  20.324  12.287
   18ETHO   H23 2180  10.522  20.385  12.115
   19ETHO    O1 2181  10.447  20.202  12.138
   19ETHO    C1 2182  10.578  20.155  12.121
   19ETHO   H11 2183  10.642  20.206  12.197
   19ETHO   H13 2184  10.611  20.188  12.020
   19ETHO    C2 2185  10.618  20.003  12.138
   19ETHO   H21 2186  10.717  19.989  12.090
   19ETHO   H23 2187  10.541  19.940  12.087
   20ETHO    O1 2188  10.634  19.969  12.271
   20ETHO    C1 2189  10.712  19.848  12.298
   20ETHO   H11 2190  10.664  19.754  12.263
   20ETHO   H13 2191  10.814  19.860  12.255
   20ETHO    C2 2192  10.733  19.816  12.452
   20ETHO   H21 2193  10.751  19.915  12.499
   20ETHO   H23 2194  10.823  19.751  12.445
   21ETHO    O1 2195  10.630  19.743  12.512
   21ETHO    C1 2196  10.657  19.743  12.655
   21ETHO   H11 2197  10.666  19.849  12.689
   21ETHO   H13 2198  10.743  19.678  12.678
   21ETHO    C2 2199  10.522  19.701  12.727
   21ETHO   H21 2200  10.449  19.771  12.682
   21ETHO   H23 2201  10.523  19.724  12.836
   22ETHO    O1 2202  10.496  19.560  12.699
   22ETHO    C1 2203  10.355  19.544  12.740
   22ETHO   H11 2204  10.292  19.602  12.669
   22ETHO   H13 2205  10.315  19.441  12.732
   22ETHO    C2 2206  10.324  19.581  12.890
   22ETHO   H21 2207  10.238  19.517  12.920
   22ETHO   H23 2208  10.413  19.549  12.948
   23ETHO    O1 2209  10.300  19.716  12.909
   23ETHO    C1 2210  10.250  19.741  13.041
   23ETHO   H11 2211  10.332  19.714  13.111
   23ETHO   H13 2212  10.173  19.670  13.078
   23ETHO    C2 2213  10.205  19.891  13.068
   23ETHO   H21 2214  10.243  19.963  12.993
   23ETHO   H23 2215  10.244  19.918  13.169
   24ETHO    O1 2216  10.065  19.901  13.063
   24ETHO    C1 2217  10.021  20.026  13.108
   24ETHO   H11 2218  10.109  20.093  13.121
   24ETHO   H13 2219   9.957  20.071  13.030
   24ETHO    C2 2220   9.945  20.033  13.239
   24ETHO   H21 2221   9.948  20.141  13.269
   24ETHO   H23 2222   9.993  19.972  13.318
   25ETHO    O1 2223   9.810  19.989  13.222
   25ETHO    C1 2224   9.737  19.979  13.346
   25ETHO   H11 2225   9.781  19.905  13.416
   25ETHO   H13 2226   9.641  19.935  13.310
   25ETHO    C2 2227   9.727  20.104  13.445
   25ETHO   H21 2228   9.828  20.140  13.472
   25ETHO   H23 2229   9.676  20.067  13.537
   26ETHO    O1 2230   9.648  20.216  13.396
   26ETHO    C1 2231   9.653  20.324  13.487
   26ETHO   H11 2232   9.593  20.305  13.578
   26ETHO   H13 2233   9.758  20.346  13.516
   26ETHO    C2 2234   9.602  20.451  13.423
   26ETHO   H21 2235   9.620  20.453  13.314
   26ETHO   H23 2236   9.644  20.538  13.479
   27ETHO    O1 2237   9.454  20.455  13.440
   27ETHO    C1 2238   9.386  20.547  13.354
   27ETHO   H11 2239   9.383  20.525  13.245
   27ETHO   H13 2240   9.441  20.643  13.361
   27ETHO    C2 2241   9.246  20.580  13.410
   27ETHO   H21 2242   9.208  20.481  13.441
   27ETHO   H23 2243   9.177  20.621  13.333
   28ETHO    O1 2244   9.238  20.660  13.524
   28ETHO    C1 2245   9.108  20.649  13.585
   28ETHO   H11 2246   9.028  20.690  13.520
   28ETHO   H13 2247   9.089  20.542  13.609
   28ETHO    C2 2248   9.084  20.723  13.710
   28ETHO   H21 2249   9.156  20.684  13.785
   28ETHO   H23 2250   8.980  20.711  13.747
   29ETHO    O1 2251   9.102  20.861  13.694
   29ETHO    C1 2252   9.162  20.927  13.802
   29ETHO   H11 2253   9.262  20.883  13.826
   29ETHO   H13 2254   9.097  20.911  13.890
   29ETHO    C2 2255   9.184  21.078  13.802
   29ETHO   H21 2256   9.254  21.113  13.723
   29ETHO   H23 2257   9.234  21.105  13.898
   30ETHO    O1 2258   9.070  21.161  13.768
   30ETHO    C1 2259   8.981  21.179  13.871
   30ETHO   H11 2260   8.884  21.208  13.826
   30ETHO   H13 2261   8.953  21.080  13.914
   30ETHO    C2 2262   9.023  21.280  13.979
   30ETHO   H21 2263   9.127  21.268  14.015
   30ETHO   H23 2264   8.954  21.269  14.065
   31ETHO    O1 2265   9.000  21.408  13.927
   31ETHO    C1 2266   8.955  21.494  14.032
   31ETHO   H11 2267   8.996  21.468  14.132
   31ETHO   H13 2268   8.999  21.593  14.008
   31ETHO    C2 2269   8.798  21.504  14.032
   31ETHO   H21 2270   8.779  21.577  14.114
   31ETHO   H23 2271   8.757  21.401  14.045
   32ETHO    O1 2272   8.751  21.564  13.910
   32ETHO    C1 2273   8.609  21.570  13.909
   32ETHO   H11 2274   8.565  21.474  13.877
   32ETHO   H13 2275   8.569  21.600  14.008
   32ETHO    C2 2276   8.572  21.668  13.806
   32ETHO   H21 2277   8.632  21.760  13.819
   32ETHO   H23 2278   8.464  21.688  13.827
   33ETHO    O1 2279   8.582  21.612  13.675
   33ETHO    C1 2280   8.558  21.716  13.575
   33ETHO   H11 2281   8.448  21.713  13.559
   33ETHO   H13 2282   8.595  21.814  13.611
   33ETHO    C2 2283   8.637  21.671  13.455
   33ETHO   H21 2284   8.651  21.746  13.375
   33ETHO   H23 2285   8.600  21.577  13.408
   34ETHO    O1 2286   8.772  21.648  13.487
   34ETHO    C1 2287   8.856  21.579  13.397
   34ETHO   H11 2288   8.810  21.490  13.349
   34ETHO   H13 2289   8.944  21.544  13.455
   34ETHO    C2 2290   8.904  21.679  13.295
   34ETHO   H21 2291   8.817  21.710  13.233
   34ETHO   H23 2292   8.969  21.624  13.223
   35ETHO    O1 2293   8.977  21.791  13.335
   35ETHO    C1 2294   9.011  21.870  13.225
   35ETHO   H11 2295   9.086  21.811  13.169
   35ETHO   H13 2296   8.924  21.893  13.160
   35ETHO    C2 2297   9.056  22.000  13.276
   35ETHO   H21 2298   9.099  22.070  13.201
   35ETHO   H23 2299   9.126  21.976  13.359
   36ETHO    O1 2300   8.942  22.064  13.339
   36ETHO    C1 2301   8.980  22.193  13.379
   36ETHO   H11 2302   9.059  22.236  13.314
   36ETHO   H13 2303   9.014  22.172  13.483
   36ETHO    C2 2304   8.860  22.282  13.398
   36ETHO   H21 2305   8.778  22.228  13.451
   36ETHO   H23 2306   8.815  22.309  13.300
   37ETHO    O1 2307   8.898  22.404  13.471
   37ETHO    C1 2308   8.904  22.383  13.613
   37ETHO   H11 2309   8.827  22.452  13.655
   37ETHO   H13 2310   8.860  22.282  13.629
   37ETHO    C2 2311   9.042  22.381  13.687
   37ETHO   H21 2312   9.109  22.306  13.640
   37ETHO   H23 2313   9.019  22.358  13.793
   38ETHO    O1 2314   9.098  22.512  13.674
   38ETHO    C1 2315   9.153  22.534  13.545
   38ETHO   H11 2316   9.075  22.546  13.467
   38ETHO   H13 2317   9.217  22.447  13.517
   38ETHO    C2 2318   9.231  22.669  13.553
   38ETHO   H21 2319   9.285  22.675  13.456
   38ETHO   H23 2320   9.315  22.669  13.626
   39ETHO    O1 2321   9.149  22.787  13.580
   39ETHO    C1 2322   9.223  22.898  13.628
   39ETHO   H11 2323   9.266  22.886  13.730
   39ETHO   H13 2324   9.295  22.919  13.547
   39ETHO    C2 2325   9.139  23.028  13.645
   39ETHO   H21 2326   9.097  23.067  13.549
   39ETHO   H23 2327   9.218  23.103  13.663
   40ETHO    O1 2328   9.037  23.029  13.745
   40ETHO    C1 2329   8.988  23.166  13.762
   40ETHO   H11 2330   8.944  23.194  13.664
   40ETHO   H13 2331   9.074  23.236  13.779
   40ETHO    C2 2332   8.895  23.168  13.885
   40ETHO   H21 2333   8.857  23.272  13.890
   40ETHO   H23 2334   8.956  23.149  13.976
   41ETHO    O1 2335   8.781  23.084  13.872
   41ETHO    C1 2336   8.698  23.110  13.984
   41ETHO   H11 2337   8.742  23.153  14.076
   41ETHO   H13 2338   8.617  23.179  13.952
   41ETHO    C2 2339   8.629  22.976  14.012
   41ETHO   H21 2340   8.567  22.948  13.924
   41ETHO   H23 2341   8.554  22.989  14.092
   42ETHO    O1 2342   8.723  22.880  14.055
   42ETHO    C1 2343   8.657  22.757  14.086
   42ETHO   H11 2344   8.567  22.777  14.147
   42ETHO   H13 2345   8.627  22.697  13.997
   42ETHO    C2 2346   8.750  22.659  14.166
   42ETHO   H21 2347   8.854  22.658  14.127
   42ETHO   H23 2348   8.728  22.551  14.154
   43ETHO    O1 2349   8.757  22.688  14.301
   43ETHO    C1 2350   8.844  22.600  14.373
   43ETHO   H11 2351   8.809  22.496  14.354
   43ETHO   H13 2352   8.947  22.601  14.331
   43ETHO    C2 2353   8.836  22.632  14.524
   43ETHO   H21 2354   8.890  22.549  14.575
   43ETHO   H23 2355   8.731  22.633  14.560
   44ETHO    O1 2356   8.904  22.754  14.558
   44ETHO    C1 2357   8.914  22.780  14.693
   44ETHO   H11 2358   8.812  22.795  14.735
   44ETHO   H13 2359   8.955  22.691  14.745
   44ETHO    C2 2360   8.976  22.911  14.727
   44ETHO   H21 2361   9.082  22.919  14.695
   44ETHO   H23 2362   8.980  22.918  14.837
   45ETHO    O1 2363   8.894  23.015  14.676
   45ETHO    C1 2364   8.959  23.132  14.639
   45ETHO   H11 2365   9.046  23.100  14.578
   45ETHO   H13 2366   9.002  23.173  14.732
   45ETHO    C2 2367   8.856  23.227  14.575
   45ETHO   H21 2368   8.890  23.332  14.566
   45ETHO   H23 2369   8.771  23.235  14.646
   46ETHO    O1 2370   8.807  23.176  14.446
   46ETHO    C1 2371   8.667  23.164  14.449
   46ETHO   H11 2372   8.615  23.247  14.503
   46ETHO   H13 2373   8.627  23.168  14.345
   46ETHO    C2 2374   8.633  23.035  14.535
   46ETHO   H21 2375   8.591  23.071  14.631
   46ETHO   H23 2376   8.715  22.960  14.544
   47ETHO    O1 2377   8.522  22.977  14.467
   47ETHO    C1 2378   8.471  22.859  14.528
   47ETHO   H11 2379   8.459  22.859  14.639
   47ETHO   H13 2380   8.538  22.775  14.502
   47ETHO    C2 2381   8.330  22.828  14.471
   47ETHO   H21 2382   8.267  22.917  14.450
   47ETHO   H23 2383   8.270  22.766  14.542
   48ETHO    O1 2384   8.346  22.761  14.349
   48ETHO    C1 2385   8.235  22.710  14.278
   48ETHO   H11 2386   8.156  22.663  14.342
   48ETHO   H13 2387   8.184  22.796  14.231
   48ETHO    C2 2388   8.278  22.619  14.167
   48ETHO   H21 2389   8.186  22.575  14.121
   48ETHO   H23 2390   8.338  22.676  14.092
   49ETHO    O1 2391   8.343  22.512  14.230
   49ETHO    C1 2392   8.392  22.424  14.132
   49ETHO   H11 2393   8.461  22.480  14.065
   49ETHO   H13 2394   8.314  22.373  14.071
   49ETHO    C2 2395   8.460  22.311  14.204
   49ETHO   H21 2396   8.494  22.232  14.134
   49ETHO   H23 2397   8.389  22.271  14.279
   50ETHO    O1 2398   8.578  22.359  14.283
   50ETHO    C1 2399   8.660  22.247  14.333
   50ETHO   H11 2400   8.715  22.294  14.417
   50ETHO   H13 2401   8.592  22.170  14.376
   50ETHO    C2 2402   8.759  22.184  14.236
   50ETHO   H21 2403   8.823  22.263  14.190
   50ETHO   H23 2404   8.708  22.146  14.145
   51ETHO    O1 2405   8.857  22.104  14.300
   51ETHO    C1 2406   8.813  21.969  14.312
   51ETHO   H11 2407   8.758  21.936  14.221
   51ETHO   H13 2408   8.740  21.979  14.395
   51ETHO    C2 2409   8.923  21.876  14.371
   51ETHO   H21 2410   8.873  21.787  14.413
   51ETHO   H23 2411   8.967  21.942  14.449
   52ETHO    O1 2412   9.025  21.834  14.278
   52ETHO    C1 2413   9.098  21.729  14.332
   52ETHO   H11 2414   9.123  21.769  14.432
   52ETHO   H13 2415   9.036  21.637  14.338
   52ETHO    C2 2416   9.221  21.711  14.250
   52ETHO   H21 2417   9.317  21.704  14.306
   52ETHO   H23 2418   9.242  21.789  14.173
   53ETHO    O1 2419   9.211  21.594  14.173
   53ETHO    C1 2420   9.314  21.573  14.076
   53ETHO   H11 2421   9.274  21.493  14.009
   53ETHO   H13 2422   9.341  21.660  14.013
   53ETHO    C2 2423   9.451  21.523  14.140
   53ETHO   H21 2424   9.496  21.598  14.208
   53ETHO   H23 2425   9.521  21.520  14.054
   54ETHO    O1 2426   9.449  21.386  14.197
   54ETHO    C1 2427   9.416  21.394  14.340
   54ETHO   H11 2428   9.486  21.463  14.393
   54ETHO   H13 2429   9.313  21.435  14.349
   54ETHO    C2 2430   9.418  21.256  14.413
   54ETHO   H21 2431   9.385  21.272  14.518
   54ETHO   H23 2432   9.523  21.218  14.422
   55ETHO    O1 2433   9.334  21.160  14.350
   55ETHO    C1 2434   9.399  21.086  14.241
   55ETHO   H11 2435   9.457  21.148  14.169
   55ETHO   H13 2436   9.479  21.022  14.283
   55ETHO    C2 2437   9.291  21.011  14.162
   55ETHO   H21 2438   9.205  21.075  14.133
   55ETHO   H23 2439   9.325  20.956  14.072
   56ETHO    O1 2440   9.236  20.904  14.244
   56ETHO    C1 2441   9.112  20.863  14.192
   56ETHO   H11 2442   9.069  20.935  14.119
   56ETHO   H13 2443   9.034  20.859  14.272
   56ETHO    C2 2444   9.110  20.718  14.118
   56ETHO   H21 2445   9.193  20.724  14.044
   56ETHO   H23 2446   9.011  20.704  14.068
   57ETHO    O1 2447   9.131  20.605  14.198
   57ETHO    C1 2448   9.135  20.488  14.122
   57ETHO   H11 2449   9.050  20.495  14.051
   57ETHO   H13 2450   9.226  20.483  14.059
   57ETHO    C2 2451   9.098  20.356  14.195
   57ETHO   H21 2452   9.091  20.279  14.115
   57ETHO   H23 2453   9.000  20.366  14.246
   58ETHO    O1 2454   9.199  20.313  14.293
   58ETHO    C1 2455   9.166  20.203  14.372
   58ETHO   H11 2456   9.258  20.146  14.398
   58ETHO   H13 2457   9.109  20.128  14.313
   58ETHO    C2 2458   9.102  20.265  14.501
   58ETHO   H21 2459   9.050  20.184  14.557
   58ETHO   H23 2460   9.021  20.337  14.479
   59ETHO    O1 2461   9.205  20.333  14.576
   59ETHO    C1 2462   9.166  20.340  14.713
   59ETHO   H11 2463   9.073  20.398  14.727
   59ETHO   H13 2464   9.143  20.235  14.741
   59ETHO    C2 2465   9.268  20.396  14.812
   59ETHO   H21 2466   9.210  20.437  14.897
   59ETHO   H23 2467   9.318  20.477  14.756
   60ETHO    O1 2468   9.369  20.307  14.859
   60ETHO    C1 2469   9.463  20.380  14.930
   60ETHO   H11 2470   9.408  20.417  15.020
   60ETHO   H13 2471   9.484  20.468  14.866
   60ETHO    C2 2472   9.585  20.301  14.967
   60ETHO   H21 2473   9.551  20.215  15.028
   60ETHO   H23 2474   9.658  20.353  15.033
   61ETHO    O1 2475   9.638  20.254  14.845
   61ETHO    C1 2476   9.734  20.350  14.793
   61ETHO   H11 2477   9.694  20.451  14.814
   61ETHO   H13 2478   9.833  20.340  14.841
   61ETHO    C2 2479   9.751  20.341  14.638
   61ETHO   H21 2480   9.802  20.435  14.607
   61ETHO   H23 2481   9.652  20.360  14.593
   62ETHO    O1 2482   9.821  20.224  14.601
   62ETHO    C1 2483   9.857  20.231  14.466
   62ETHO   H11 2484   9.926  20.318  14.462
   62ETHO   H13 2485   9.768  20.249  14.403
   62ETHO    C2 2486   9.911  20.098  14.412
   62ETHO   H21 2487   9.933  20.112  14.304
   62ETHO   H23 2488   9.832  20.021  14.425
   63ETHO    O1 2489  10.030  20.057  14.470
   63ETHO    C1 2490  10.084  19.938  14.424
   63ETHO   H11 2491  10.171  19.916  14.490
   63ETHO   H13 2492  10.011  19.857  14.443
   63ETHO    C2 2493  10.122  19.934  14.275
   63ETHO   H21 2494  10.205  19.866  14.247
   63ETHO   H23 2495  10.156  20.037  14.251
   64ETHO    O1 2496  10.002  19.888  14.201
   64ETHO    C1 2497  10.003  19.928  14.068
   64ETHO   H11 2498  10.057  19.849  14.012
   64ETHO   H13 2499  10.045  20.030  14.059
   64ETHO    C2 2500   9.863  19.934  14.006
   64ETHO   H21 2501   9.807  19.838  14.009
   64ETHO   H23 2502   9.882  19.961  13.900
   65ETHO    O1 2503   9.795  20.037  14.076
   65ETHO    C1 2504   9.654  20.018  14.092
   65ETHO   H11 2505   9.601  20.022  13.994
   65ETHO   H13 2506   9.622  19.930  14.151
   65ETHO    C2 2507   9.583  20.139  14.166
   65ETHO   H21 2508   9.634  20.152  14.264
   65ETHO   H23 2509   9.477  20.110  14.182
   66ETHO    O1 2510   9.601  20.260  14.093
   66ETHO    C1 2511   9.557  20.371  14.175
   66ETHO   H11 2512   9.641  20.383  14.247
   66ETHO   H13 2513   9.462  20.342  14.223
   66ETHO    C2 2514   9.535  20.509  14.099
   66ETHO   H21 2515   9.638  20.544  14.076
   66ETHO   H23 2516   9.502  20.572  14.184
   67ETHO    O1 2517   9.449  20.512  13.984
   67ETHO    C1 2518   9.435  20.640  13.916
   67ETHO   H11 2519   9.338  20.637  13.864
   67ETHO   H13 2520   9.442  20.723  13.989
   67ETHO    C2 2521   9.543  20.657  13.801
   67ETHO   H21 2522   9.509  20.743  13.740
   67ETHO   H23 2523   9.540  20.570  13.731
   68ETHO    O1 2524   9.676  20.674  13.853
   68ETHO    C1 2525   9.765  20.668  13.744
   68ETHO   H11 2526   9.768  20.570  13.691
   68ETHO   H13 2527   9.734  20.737  13.662
   68ETHO    C2 2528   9.917  20.715  13.780
   68ETHO   H21 2529   9.900  20.808  13.839
   68ETHO   H23 2530   9.977  20.738  13.690
   69ETHO    O1 2531   9.985  20.619  13.858
   69ETHO    C1 2532  10.111  20.675  13.899
   69ETHO   H11 2533  10.201  20.627  13.855
   69ETHO   H13 2534  10.125  20.776  13.854
   69ETHO    C2 2535  10.149  20.682  14.057
   69ETHO   H21 2536  10.256  20.711  14.061
   69ETHO   H23 2537  10.136  20.583  14.106
   70ETHO    O1 2538  10.081  20.776  14.125
   70ETHO    C1 2539  10.103  20.776  14.266
   70ETHO   H11 2540  10.086  20.676  14.312
   70ETHO   H13 2541  10.209  20.806  14.278
   70ETHO    C2 2542  10.009  20.880  14.333
   70ETHO   H21 2543  10.001  20.965  14.262
   70ETHO   H23 2544  10.068  20.921  14.417
   71ETHO    O1 2545   9.887  20.835  14.382
   71ETHO    C1 2546   9.812  20.945  14.437
   71ETHO   H11 2547   9.804  21.015  14.352
   71ETHO   H13 2548   9.870  20.986  14.523
   71ETHO    C2 2549   9.670  20.912  14.488
   71ETHO   H21 2550   9.612  20.862  14.407
   71ETHO   H23 2551   9.614  21.007  14.497
   72ETHO    O1 2552   9.650  20.828  14.599
   72ETHO    C1 2553   9.581  20.896  14.708
   72ETHO   H11 2554   9.627  20.995  14.725
   72ETHO   H13 2555   9.482  20.938  14.683
   72ETHO    C2 2556   9.566  20.811  14.837
   72ETHO   H21 2557   9.560  20.866  14.933
   72ETHO   H23 2558   9.664  20.759  14.846
   73ETHO    O1 2559   9.458  20.717  14.840
   73ETHO    C1 2560   9.345  20.780  14.878
   73ETHO   H11 2561   9.264  20.743  14.811
   73ETHO   H13 2562   9.349  20.890  14.862
   73ETHO    C2 2563   9.301  20.744  15.023
   73ETHO   H21 2564   9.293  20.633  15.028
   73ETHO   H23 2565   9.202  20.790  15.044
   74ETHO    O1 2566   9.384  20.800  15.129
   74ETHO    C1 2567   9.348  20.737  15.254
   74ETHO   H11 2568   9.245  20.760  15.288
   74ETHO   H13 2569   9.366  20.628  15.240
   74ETHO    C2 2570   9.436  20.762  15.374
   74ETHO   H21 2571   9.536  20.719  15.356
   74ETHO   H23 2572   9.389  20.706  15.458
   75ETHO    O1 2573   9.459  20.898  15.422
   75ETHO    C1 2574   9.553  20.905  15.531
   75ETHO   H11 2575   9.649  20.865  15.492
   75ETHO   H13 2576   9.509  20.849  15.616
   75ETHO    C2 2577   9.569  21.046  15.581
   75ETHO   H21 2578   9.620  21.055  15.679
   75ETHO   H23 2579   9.463  21.079  15.588
   76ETHO    O1 2580   9.645  21.135  15.497
   76ETHO    C1 2581   9.566  21.219  15.415
   76ETHO   H11 2582   9.508  21.154  15.346
   76ETHO   H13 2583   9.501  21.282  15.481
   76ETHO    C2 2584   9.649  21.316  15.331
   76ETHO   H21 2585   9.721  21.365  15.400
   76ETHO   H23 2586   9.584  21.394  15.285
   77ETHO    O1 2587   9.723  21.255  15.229
   77ETHO    C1 2588   9.643  21.213  15.113
   77ETHO   H11 2589   9.582  21.291  15.062
   77ETHO   H13 2590   9.568  21.140  15.149
   77ETHO    C2 2591   9.734  21.162  15.007
   77ETHO   H21 2592   9.815  21.238  14.996
   77ETHO   H23 2593   9.672  21.166  14.915
   78ETHO    O1 2594   9.789  21.038  15.036
   78ETHO    C1 2595   9.878  21.003  14.930
   78ETHO   H11 2596   9.812  20.996  14.841
   78ETHO   H13 2597   9.946  21.089  14.913
   78ETHO    C2 2598   9.950  20.879  14.962
   78ETHO   H21 2599   9.871  20.808  14.994
   78ETHO   H23 2600  10.018  20.902  15.047
   79ETHO    O1 2601  10.025  20.849  14.841
   79ETHO    C1 2602   9.972  20.737  14.769
   79ETHO   H11 2603   9.936  20.659  14.839
   79ETHO   H13 2604   9.888  20.772  14.705
   79ETHO    C2 2605  10.091  20.683  14.681
   79ETHO   H21 2606  10.158  20.765  14.647
   79ETHO   H23 2607  10.045  20.634  14.593
   80ETHO    O1 2608  10.166  20.582  14.745
   80ETHO    C1 2609  10.253  20.510  14.658
   80ETHO   H11 2610  10.206  20.479  14.562
   80ETHO   H13 2611  10.332  20.580  14.624
   80ETHO    C2 2612  10.318  20.397  14.746
   80ETHO   H21 2613  10.384  20.326  14.692
   80ETHO   H23 2614  10.239  20.322  14.772
   81ETHO    O1 2615  10.402  20.438  14.854
   81ETHO    C1 2616  10.437  20.333  14.940
   81ETHO   H11 2617  10.344  20.308  14.996
   81ETHO   H13 2618  10.471  20.244  14.884
   81ETHO    C2 2619  10.545  20.369  15.045
   81ETHO   H21 2620  10.512  20.453  15.110
   81ETHO   H23 2621  10.567  20.284  15.113
   82ETHO    O1 2622  10.663  20.411  14.975
   82ETHO    C1 2623  10.751  20.469  15.071
   82ETHO   H11 2624  10.749  20.405  15.162
   82ETHO   H13 2625  10.716  20.572  15.091
   82ETHO    C2 2626  10.898  20.470  15.021
   82ETHO   H21 2627  10.972  20.518  15.088
   82ETHO   H23 2628  10.899  20.516  14.920
   83ETHO    O1 2629  10.952  20.343  15.008
   83ETHO    C1 2630  11.079  20.343  14.949
   83ETHO   H11 2631  11.070  20.392  14.850
   83ETHO   H13 2632  11.157  20.401  15.004
   83ETHO    C2 2633  11.123  20.197  14.909
   83ETHO   H21 2634  11.119  20.130  14.997
   83ETHO   H23 2635  11.230  20.202  14.877
   84ETHO    O1 2636  11.036  20.132  14.812
   84ETHO    C1 2637  11.058  20.174  14.675
   84ETHO   H11 2638  11.168  20.186  14.666
   84ETHO   H13 2639  11.011  20.272  14.651
   84ETHO    C2 2640  10.996  20.082  14.564
   84ETHO   H21 2641  10.981  20.154  14.480
   84ETHO   H23 2642  10.898  20.037  14.591
   85ETHO    O1 2643  11.068  19.973  14.511
   85ETHO    C1 2644  11.105  19.885  14.612
   85ETHO   H11 2645  11.200  19.924  14.654
   85ETHO   H13 2646  11.029  19.872  14.692
   85ETHO    C2 2647  11.147  19.738  14.569
   85ETHO   H21 2648  11.226  19.699  14.637
   85ETHO   H23 2649  11.193  19.744  14.469
   86ETHO    O1 2650  11.035  19.652  14.567
   86ETHO    C1 2651  11.070  19.517  14.507
   86ETHO   H11 2652  11.103  19.451  14.590
   86ETHO   H13 2653  11.162  19.513  14.444
   86ETHO    C2 2654  10.943  19.458  14.430
   86ETHO   H21 2655  10.862  19.458  14.506
   86ETHO   H23 2656  10.961  19.350  14.414
   87ETHO    O1 2657  10.897  19.531  14.314
   87ETHO    C1 2658  10.776  19.470  14.259
   87ETHO   H11 2659  10.797  19.364  14.231
   87ETHO   H13 2660  10.696  19.480  14.336
   87ETHO    C2 2661  10.752  19.536  14.122
   87ETHO   H21 2662  10.769  19.644  14.142
   87ETHO   H23 2663  10.649  19.512  14.088
   88ETHO    O1 2664  10.837  19.472  14.023
   88ETHO    C1 2665  10.839  19.555  13.907
   88ETHO   H11 2666  10.920  19.531  13.834
   88ETHO   H13 2667  10.873  19.652  13.949
   88ETHO    C2 2668  10.712  19.579  13.811
   88ETHO   H21 2669  10.743  19.644  13.726
   88ETHO   H23 2670  10.629  19.609  13.879
   89ETHO    O1 2671  10.688  19.453  13.756
   89ETHO    C1 2672  10.590  19.455  13.657
   89ETHO   H11 2673  10.499  19.508  13.693
   89ETHO   H13 2674  10.618  19.508  13.564
   89ETHO    C2 2675  10.546  19.312  13.625
   89ETHO   H21 2676  10.450  19.297  13.571
   89ETHO   H23 2677  10.545  19.255  13.721
   90ETHO    O1 2678  10.640  19.264  13.531
   90ETHO    C1 2679  10.642  19.130  13.518
   90ETHO   H11 2680  10.633  19.075  13.614
   90ETHO   H13 2681  10.559  19.095  13.451
   90ETHO    C2 2682  10.769  19.081  13.455
   90ETHO   H21 2683  10.784  19.143  13.364
   90ETHO   H23 2684  10.750  18.975  13.425
   91ETHO    O1 2685  10.877  19.079  13.541
   91ETHO    C1 2686  11.000  19.033  13.491
   91ETHO   H11 2687  11.005  18.923  13.476
   91ETHO   H13 2688  11.034  19.074  13.393
   91ETHO    C2 2689  11.103  19.055  13.605
   91ETHO   H21 2690  11.094  19.163  13.632
   91ETHO   H23 2691  11.206  19.039  13.568
   92ETHO    O1 2692  11.098  18.963  13.705
   92ETHO    C1 2693  11.177  18.999  13.822
   92ETHO   H11 2694  11.282  18.995  13.785
   92ETHO   H13 2695  11.146  19.104  13.842
   92ETHO    C2 2696  11.158  18.904  13.937
   92ETHO   H21 2697  11.052  18.908  13.969
   92ETHO   H23 2698  11.214  18.958  14.016
   93ETHO    O1 2699  11.223  18.779  13.933
   93ETHO    C1 2700  11.199  18.694  14.050
   93ETHO   H11 2701  11.098  18.648  14.040
   93ETHO   H13 2702  11.200  18.754  14.144
   93ETHO    C2 2703  11.310  18.593  14.076
   93ETHO   H21 2704  11.284  18.553  14.176
   93ETHO   H23 2705  11.407  18.647  14.079
   94ETHO    O1 2706  11.310  18.483  13.990
   94ETHO    C1 2707  11.392  18.372  14.029
   94ETHO   H11 2708  11.493  18.409  14.057
   94ETHO   H13 2709  11.349  18.317  14.115
   94ETHO    C2 2710  11.429  18.291  13.905
   94ETHO   H21 2711  11.331  18.251  13.870
   94ETHO   H23 2712  11.490  18.198  13.918
   95ETHO    O1 2713  11.485  18.364  13.796
   95ETHO    C1 2714  11.566  18.271  13.725
   95ETHO   H11 2715  11.503  18.185  13.696
   95ETHO   H13 2716  11.649  18.235  13.789
   95ETHO    C2 2717  11.629  18.329  13.591
   95ETHO   H21 2718  11.711  18.262  13.558
   95ETHO   H23 2719  11.663  18.435  13.598
   96ETHO    O1 2720  11.529  18.323  13.486
   96ETHO    C1 2721  11.584  18.351  13.360
   96ETHO   H11 2722  11.497  18.388  13.302
   96ETHO   H13 2723  11.650  18.441  13.365
   96ETHO    C2 2724  11.651  18.237  13.293
   96ETHO   H21 2725  11.752  18.234  13.339
   96ETHO   H23 2726  11.656  18.250  13.183
   97ETHO    O1 2727  11.590  18.116  13.331
   97ETHO    C1 2728  11.649  17.999  13.265
   97ETHO   H11 2729  11.660  18.014  13.156
   97ETHO   H13 2730  11.582  17.913  13.286
   97ETHO    C2 2731  11.784  17.955  13.329
   97ETHO   H21 2732  11.781  17.970  13.439
   97ETHO   H23 2733  11.864  18.021  13.288
   98ETHO    O1 2734  11.818  17.821  13.304
   98ETHO    C1 2735  11.934  17.780  13.370
   98ETHO   H11 2736  12.014  17.830  13.311
   98ETHO   H13 2737  11.935  17.817  13.475
   98ETHO    C2 2738  11.959  17.625  13.374
   98ETHO   H21 2739  11.882  17.581  13.440
   98ETHO   H23 2740  12.051  17.611  13.435
   99ETHO    O1 2741  11.978  17.544  13.256
   99ETHO    C1 2742  11.854  17.519  13.186
   99ETHO   H11 2743  11.790  17.610  13.181
   99ETHO   H13 2744  11.801  17.444  13.248
   99ETHO    C2 2745  11.882  17.463  13.045
   99ETHO   H21 2746  11.954  17.536  13.001
   99ETHO   H23 2747  11.784  17.467  12.994
  100ETHO    O1 2748  11.930  17.327  13.048
  100ETHO    C1 2749  12.043  17.315  12.963
  100ETHO   H11 2750  12.021  17.346  12.858
  100ETHO   H13 2751  12.119  17.382  13.009
  100ETHO    C2 2752  12.079  17.168  12.964
  100ETHO   H21 2753  11.993  17.112  12.921
  100ETHO   H23 2754  12.092  17.116  13.061
  101PROX    O1 2755  12.202  17.155  12.894
  101PROX    C1 2756  12.218  17.013  12.854
  101PROX   H11 2757  12.231  16.952  12.946
  101PROX   H13 2758  12.127  16.970  12.806
  101PROX    C2 2759  12.346  16.998  12.774
  101PROX   H21 2760  12.423  17.055  12.831
  101PROX    C3 2761  12.330  17.056  12.634
  101PROX   H31 2762  12.431  17.075  12.592
  101PROX   H32 2763  12.269  16.987  12.571
  101PROX   H33 2764  12.276  17.153  12.638
  102PROX    O1 2765  12.385  16.861  12.748
  102PROX    C1 2766  12.522  16.835  12.737
  102PROX   H11 2767  12.538  16.760  12.657
  102PROX   H13 2768  12.586  16.922  12.709
  102PROX    C2 2769  12.581  16.773  12.862
  102PROX   H21 2770  12.501  16.715  12.912
  102PROX    C3 2771  12.635  16.880  12.958
  102PROX   H31 2772  12.710  16.938  12.901
  102PROX   H32 2773  12.559  16.951  12.994
  102PROX   H33 2774  12.674  16.836  13.053
  103PROX    O1 2775  12.684  16.686  12.824
  103PROX    C1 2776  12.712  16.590  12.930
  103PROX   H11 2777  12.651  16.597  13.023
  103PROX   H13 2778  12.687  16.487  12.897
  103PROX    C2 2779  12.863  16.611  12.970
  103PROX   H21 2780  12.876  16.712  13.013
  103PROX    C3 2781  12.956  16.604  12.847
  103PROX   H31 2782  12.950  16.503  12.801
  103PROX   H32 2783  12.940  16.683  12.770
  103PROX   H33 2784  13.063  16.611  12.876
  104PROX    O1 2785  12.910  16.518  13.061
  104PROX    C1 2786  12.867  16.547  13.189
  104PROX   H11 2787  12.915  16.639  13.228
  104PROX   H13 2788  12.761  16.580  13.194
  104PROX    C2 2789  12.883  16.427  13.287
  104PROX   H21 2790  12.991  16.405  13.295
  104PROX    C3 2791  12.808  16.299  13.243
  104PROX   H31 2792  12.886  16.245  13.185
  104PROX   H32 2793  12.783  16.237  13.332
  104PROX   H33 2794  12.721  16.329  13.181
  105PROX    O1 2795  12.829  16.468  13.416
  105PROX    C1 2796  12.886  16.394  13.522
  105PROX   H11 2797  12.934  16.305  13.476
  105PROX   H13 2798  12.950  16.454  13.590
  105PROX    C2 2799  12.763  16.346  13.623
  105PROX   H21 2800  12.708  16.272  13.562
  105PROX    C3 2801  12.671  16.466  13.679
  105PROX   H31 2802  12.723  16.518  13.762
  105PROX   H32 2803  12.662  16.537  13.593
  105PROX   H33 2804  12.566  16.436  13.700
  106PROX    O1 2805  12.820  16.281  13.740
  106PROX    C1 2806  12.867  16.148  13.710
  106PROX   H11 2807  12.890  16.135  13.601
  106PROX   H13 2808  12.971  16.145  13.749
  106PROX    C2 2809  12.778  16.031  13.754
  106PROX   H21 2810  12.683  16.024  13.697
  106PROX    C3 2811  12.755  16.025  13.910
  106PROX   H31 2812  12.850  16.034  13.966
  106PROX   H32 2813  12.687  16.109  13.937
  106PROX   H33 2814  12.705  15.927  13.927
  107PROX    O1 2815  12.852  15.908  13.717
  107PROX    C1 2816  12.768  15.806  13.660
  107PROX   H11 2817  12.822  15.710  13.669
  107PROX   H13 2818  12.677  15.804  13.724
  107PROX    C2 2819  12.731  15.829  13.512
  107PROX   H21 2820  12.711  15.727  13.473
  107PROX    C3 2821  12.854  15.878  13.437
  107PROX   H31 2822  12.944  15.826  13.477
  107PROX   H32 2823  12.844  15.862  13.327
  107PROX   H33 2824  12.868  15.986  13.460
  108PROX    O1 2825  12.623  15.920  13.495
  108PROX    C1 2826  12.501  15.852  13.468
  108PROX   H11 2827  12.511  15.763  13.402
  108PROX   H13 2828  12.439  15.827  13.557
  108PROX    C2 2829  12.403  15.955  13.399
  108PROX   H21 2830  12.453  15.994  13.308
  108PROX    C3 2831  12.388  16.076  13.497
  108PROX   H31 2832  12.330  16.063  13.590
  108PROX   H32 2833  12.483  16.124  13.528
  108PROX   H33 2834  12.336  16.160  13.445
  109PROX    O1 2835  12.279  15.899  13.356
  109PROX    C1 2836  12.235  15.797  13.447
  109PROX   H11 2837  12.287  15.700  13.461
  109PROX   H13 2838  12.219  15.843  13.547
  109PROX    C2 2839  12.096  15.742  13.389
  109PROX   H21 2840  12.040  15.832  13.356
  109PROX    C3 2841  12.015  15.686  13.509
  109PROX   H31 2842  11.914  15.663  13.467
  109PROX   H32 2843  12.060  15.595  13.554
  109PROX   H33 2844  11.995  15.756  13.593
  110PROX    O1 2845  12.121  15.649  13.285
  110PROX    C1 2846  12.197  15.699  13.173
  110PROX   H11 2847  12.151  15.795  13.142
  110PROX   H13 2848  12.305  15.718  13.191
  110PROX    C2 2849  12.183  15.607  13.051
  110PROX   H21 2850  12.076  15.577  13.055
  110PROX    C3 2851  12.269  15.482  13.066
  110PROX   H31 2852  12.379  15.498  13.073
  110PROX   H32 2853  12.237  15.445  13.166
  110PROX   H33 2854  12.227  15.414  12.988
  111PROX    O1 2855  12.228  15.678  12.939
  111PROX    C1 2856  12.145  15.642  12.828
  111PROX   H11 2857  12.131  15.532  12.815
  111PROX   H13 2858  12.043  15.680  12.850
  111PROX    C2 2859  12.203  15.699  12.694
  111PROX   H21 2860  12.137  15.669  12.610
  111PROX    C3 2861  12.349  15.660  12.679
  111PROX   H31 2862  12.388  15.694  12.581
  111PROX   H32 2863  12.406  15.714  12.758
  111PROX   H33 2864  12.354  15.550  12.689
  112PROX    O1 2865  12.182  15.841  12.706
  112PROX    C1 2866  12.235  15.924  12.604
  112PROX   H11 2867  12.324  15.974  12.649
  112PROX   H13 2868  12.255  15.867  12.511
  112PROX    C2 2869  12.134  16.033  12.553
  112PROX   H21 2870  12.087  16.066  12.648
  112PROX    C3 2871  12.028  15.965  12.450
  112PROX   H31 2872  12.004  15.865  12.491
  112PROX   H32 2873  11.942  16.035  12.443
  112PROX   H33 2874  12.070  15.943  12.350
  113PROX    O1 2875  12.205  16.145  12.486
  113PROX    C1 2876  12.219  16.256  12.570
  113PROX   H11 2877  12.232  16.344  12.502
  113PROX   H13 2878  12.126  16.276  12.628
  113PROX    C2 2879  12.343  16.258  12.658
  113PROX   H21 2880  12.368  16.358  12.700
  113PROX    C3 2881  12.459  16.223  12.573
  113PROX   H31 2882  12.557  16.215  12.626
  113PROX   H32 2883  12.430  16.122  12.537
  113PROX   H33 2884  12.472  16.287  12.483
  114PROX    O1 2885  12.325  16.170  12.764
  114PROX    C1 2886  12.424  16.194  12.865
  114PROX   H11 2887  12.529  16.163  12.846
  114PROX   H13 2888  12.416  16.300  12.897
  114PROX    C2 2889  12.371  16.114  12.986
  114PROX   H21 2890  12.432  16.136  13.076
  114PROX    C3 2891  12.384  15.965  12.966
  114PROX   H31 2892  12.383  15.907  13.062
  114PROX   H32 2893  12.299  15.929  12.905
  114PROX   H33 2894  12.475  15.933  12.911
  115PROX    O1 2895  12.233  16.153  12.998
  115PROX    C1 2896  12.177  16.119  13.129
  115PROX   H11 2897  12.204  16.014  13.152
  115PROX   H13 2898  12.226  16.178  13.209
  115PROX    C2 2899  12.031  16.143  13.127
  115PROX   H21 2900  12.002  16.231  13.065
  115PROX    C3 2901  11.966  16.157  13.264
  115PROX   H31 2902  11.860  16.189  13.252
  115PROX   H32 2903  11.958  16.056  13.308
  115PROX   H33 2904  12.013  16.222  13.340
  116PROX    O1 2905  11.958  16.039  13.077
  116PROX    C1 2906  11.982  16.015  12.937
  116PROX   H11 2907  12.004  16.112  12.887
  116PROX   H13 2908  12.075  15.955  12.941
  116PROX    C2 2909  11.860  15.945  12.859
  116PROX   H21 2910  11.897  15.948  12.755
  116PROX    C3 2911  11.728  16.029  12.883
  116PROX   H31 2912  11.717  16.045  12.992
  116PROX   H32 2913  11.746  16.136  12.862
  116PROX   H33 2914  11.631  15.977  12.867
  117PROX    O1 2915  11.841  15.802  12.882
  117PROX    C1 2916  11.842  15.769  13.021
  117PROX   H11 2917  11.948  15.760  13.053
  117PROX   H13 2918  11.816  15.861  13.077
  117PROX    C2 2919  11.753  15.653  13.062
  117PROX   H21 2920  11.646  15.677  13.048
  117PROX    C3 2921  11.779  15.618  13.210
  117PROX   H31 2922  11.713  15.535  13.242
  117PROX   H32 2923  11.881  15.578  13.229
  117PROX   H33 2924  11.750  15.706  13.272
  118PROX    O1 2925  11.785  15.533  12.986
  118PROX    C1 2926  11.709  15.507  12.872
  118PROX   H11 2927  11.603  15.499  12.903
  118PROX   H13 2928  11.725  15.591  12.801
  118PROX    C2 2929  11.752  15.380  12.794
  118PROX   H21 2930  11.863  15.378  12.793
  118PROX    C3 2931  11.708  15.371  12.654
  118PROX   H31 2932  11.741  15.460  12.597
  118PROX   H32 2933  11.740  15.271  12.616
  118PROX   H33 2934  11.598  15.369  12.636
  119PROX    O1 2935  11.704  15.266  12.861
  119PROX    C1 2936  11.775  15.245  12.986
  119PROX   H11 2937  11.880  15.281  12.978
  119PROX   H13 2938  11.712  15.302  13.058
  119PROX    C2 2939  11.778  15.097  13.032
  119PROX   H21 2940  11.859  15.050  12.973
  119PROX    C3 2941  11.648  15.018  13.005
  119PROX   H31 2942  11.639  15.009  12.894
  119PROX   H32 2943  11.657  14.914  13.043
  119PROX   H33 2944  11.566  15.069  13.059
  120PROX    O1 2945  11.815  15.091  13.164
  120PROX    C1 2946  11.951  15.067  13.195
  120PROX   H11 2947  11.966  14.957  13.205
  120PROX   H13 2948  12.031  15.103  13.128
  120PROX    C2 2949  11.975  15.136  13.339
  120PROX   H21 2950  11.902  15.102  13.415
  120PROX    C3 2951  11.998  15.287  13.310
  120PROX   H31 2952  12.010  15.347  13.402
  120PROX   H32 2953  12.089  15.294  13.246
  120PROX   H33 2954  11.905  15.316  13.256
  121PROX    O1 2955  12.104  15.095  13.388
  121PROX    C1 2956  12.136  15.131  13.523
  121PROX   H11 2957  12.045  15.178  13.567
  121PROX   H13 2958  12.139  15.044  13.592
  121PROX    C2 2959  12.257  15.227  13.542
  121PROX   H21 2960  12.244  15.321  13.483
  121PROX    C3 2961  12.386  15.171  13.490
  121PROX   H31 2962  12.386  15.181  13.379
  121PROX   H32 2963  12.473  15.229  13.529
  121PROX   H33 2964  12.386  15.062  13.509
  122PROX    O1 2965  12.279  15.268  13.681
  122PROX    C1 2966  12.231  15.395  13.717
  122PROX   H11 2967  12.131  15.421  13.675
  122PROX   H13 2968  12.222  15.383  13.827
  122PROX    C2 2969  12.338  15.501  13.687
  122PROX   H21 2970  12.334  15.511  13.577
  122PROX    C3 2971  12.483  15.448  13.720
  122PROX   H31 2972  12.555  15.531  13.733
  122PROX   H32 2973  12.479  15.383  13.810
  122PROX   H33 2974  12.520  15.393  13.631
  123PROX    O1 2975  12.298  15.624  13.743
  123PROX    C1 2976  12.353  15.654  13.874
  123PROX   H11 2977  12.326  15.573  13.946
  123PROX   H13 2978  12.464  15.648  13.873
  123PROX    C2 2979  12.283  15.789  13.913
  123PROX   H21 2980  12.173  15.778  13.903
  123PROX    C3 2981  12.344  15.901  13.827
  123PROX   H31 2982  12.299  15.893  13.726
  123PROX   H32 2983  12.309  15.994  13.876
  123PROX   H33 2984  12.455  15.905  13.818
  124PROX    O1 2985  12.316  15.819  14.054
  124PROX    C1 2986  12.202  15.794  14.136
  124PROX   H11 2987  12.150  15.703  14.100
  124PROX   H13 2988  12.241  15.778  14.239
  124PROX    C2 2989  12.110  15.917  14.144
  124PROX   H21 2990  12.082  15.934  14.038
  124PROX    C3 2991  12.185  16.037  14.195
  124PROX   H31 2992  12.273  16.087  14.149
  124PROX   H32 2993  12.100  16.109  14.198
  124PROX   H33 2994  12.208  16.023  14.303
  125PROX    O1 2995  12.002  15.886  14.229
  125PROX    C1 2996  11.879  15.955  14.218
  125PROX   H11 2997  11.817  15.904  14.295
  125PROX   H13 2998  11.886  16.062  14.246
  125PROX    C2 2999  11.805  15.935  14.079
  125PROX   H21 3000  11.857  15.996  14.003
  125PROX    C3 3001  11.665  15.999  14.085
  125PROX   H31 3002  11.668  16.106  14.114
  125PROX   H32 3003  11.618  15.991  13.984
  125PROX   H33 3004  11.592  15.949  14.153
  126PROX    O1 3005  11.821  15.809  14.028
  126PROX    C1 3006  11.833  15.802  13.882
  126PROX   H11 3007  11.764  15.869  13.827
  126PROX   H13 3008  11.936  15.825  13.846
  126PROX    C2 3009  11.816  15.652  13.847
  126PROX   H21 3010  11.730  15.603  13.898
  126PROX    C3 3011  11.947  15.579  13.877
  126PROX   H31 3012  11.996  15.610  13.972
  126PROX   H32 3013  11.935  15.469  13.885
  126PROX   H33 3014  12.010  15.613  13.792
  127PROX    O1 3015  11.789  15.659  13.705
  127PROX    C1 3016  11.665  15.602  13.672
  127PROX   H11 3017  11.580  15.636  13.735
  127PROX   H13 3018  11.640  15.635  13.569
  127PROX    C2 3019  11.674  15.442  13.657
  127PROX   H21 3020  11.709  15.407  13.757
  127PROX    C3 3021  11.783  15.400  13.557
  127PROX   H31 3022  11.810  15.294  13.576
  127PROX   H32 3023  11.763  15.420  13.450
  127PROX   H33 3024  11.874  15.458  13.582
  128PROX    O1 3025  11.546  15.395  13.628
  128PROX    C1 3026  11.464  15.379  13.745
  128PROX   H11 3027  11.481  15.283  13.799
  128PROX   H13 3028  11.479  15.465  13.813
  128PROX    C2 3029  11.316  15.370  13.705
  128PROX   H21 3030  11.309  15.455  13.634
  128PROX    C3 3031  11.227  15.376  13.823
  128PROX   H31 3032  11.144  15.441  13.787
  128PROX   H32 3033  11.198  15.275  13.859
  128PROX   H33 3034  11.284  15.417  13.909
  129PROX    O1 3035  11.289  15.245  13.642
  129PROX    C1 3036  11.201  15.247  13.524
  129PROX   H11 3037  11.149  15.343  13.507
  129PROX   H13 3038  11.266  15.229  13.435
  129PROX    C2 3039  11.095  15.137  13.512
  129PROX   H21 3040  11.031  15.147  13.601
  129PROX    C3 3041  11.162  14.994  13.502
  129PROX   H31 3042  11.093  14.910  13.523
  129PROX   H32 3043  11.226  14.987  13.411
  129PROX   H33 3044  11.232  14.999  13.589
  130PROX    O1 3045  11.017  15.156  13.393
  130PROX    C1 3046  10.880  15.118  13.407
  130PROX   H11 3047  10.840  15.075  13.312
  130PROX   H13 3048  10.873  15.035  13.481
  130PROX    C2 3049  10.804  15.246  13.456
  130PROX   H21 3050  10.868  15.305  13.525
  130PROX    C3 3051  10.674  15.224  13.535
  130PROX   H31 3052  10.592  15.188  13.469
  130PROX   H32 3053  10.693  15.144  13.610
  130PROX   H33 3054  10.630  15.318  13.574
  131PROX    O1 3055  10.764  15.327  13.351
  131PROX    C1 3056  10.865  15.407  13.288
  131PROX   H11 3057  10.951  15.406  13.358
  131PROX   H13 3058  10.885  15.353  13.193
  131PROX    C2 3059  10.815  15.549  13.269
  131PROX   H21 3060  10.711  15.542  13.232
  131PROX    C3 3061  10.879  15.622  13.154
  131PROX   H31 3062  10.826  15.720  13.151
  131PROX   H32 3063  10.987  15.640  13.172
  131PROX   H33 3064  10.868  15.561  13.063
  132PROX    O1 3065  10.821  15.618  13.392
  132PROX    C1 3066  10.693  15.634  13.456
  132PROX   H11 3067  10.638  15.705  13.390
  132PROX   H13 3068  10.638  15.540  13.476
  132PROX    C2 3069  10.708  15.682  13.602
  132PROX   H21 3070  10.603  15.681  13.638
  132PROX    C3 3071  10.761  15.827  13.626
  132PROX   H31 3072  10.726  15.865  13.724
  132PROX   H32 3073  10.869  15.809  13.642
  132PROX   H33 3074  10.734  15.896  13.543
  133PROX    O1 3075  10.785  15.588  13.677
  133PROX    C1 3076  10.706  15.549  13.795
  133PROX   H11 3077  10.656  15.631  13.851
  133PROX   H13 3078  10.617  15.485  13.777
  133PROX    C2 3079  10.801  15.487  13.903
  133PROX   H21 3080  10.909  15.505  13.886
  133PROX    C3 3081  10.778  15.329  13.916
  133PROX   H31 3082  10.676  15.298  13.947
  133PROX   H32 3083  10.799  15.274  13.822
  133PROX   H33 3084  10.855  15.292  13.986
  134PROX    O1 3085  10.770  15.527  14.028
  134PROX    C1 3086  10.854  15.636  14.076
  134PROX   H11 3087  10.853  15.720  14.003
  134PROX   H13 3088  10.814  15.681  14.169
  134PROX    C2 3089  11.001  15.600  14.110
  134PROX   H21 3090  11.052  15.523  14.047
  134PROX    C3 3091  11.013  15.523  14.242
  134PROX   H31 3092  10.961  15.584  14.319
  134PROX   H32 3093  10.967  15.422  14.245
  134PROX   H33 3094  11.121  15.522  14.267
  135PROX    O1 3095  11.088  15.711  14.126
  135PROX    C1 3096  11.110  15.783  14.006
  135PROX   H11 3097  11.100  15.711  13.922
  135PROX   H13 3098  11.033  15.862  14.002
  135PROX    C2 3099  11.248  15.843  14.008
  135PROX   H21 3100  11.321  15.763  14.035
  135PROX    C3 3101  11.267  15.960  14.108
  135PROX   H31 3102  11.244  15.912  14.205
  135PROX   H32 3103  11.366  16.010  14.106
  135PROX   H33 3104  11.189  16.039  14.094
  136PROX    O1 3105  11.273  15.904  13.881
  136PROX    C1 3106  11.317  15.820  13.779
  136PROX   H11 3107  11.381  15.743  13.828
  136PROX   H13 3108  11.219  15.781  13.744
  136PROX    C2 3109  11.385  15.894  13.660
  136PROX   H21 3110  11.477  15.941  13.702
  136PROX    C3 3111  11.294  16.004  13.598
  136PROX   H31 3112  11.346  16.055  13.514
  136PROX   H32 3113  11.187  15.976  13.584
  136PROX   H33 3114  11.290  16.087  13.671
  137PROX    O1 3115  11.426  15.800  13.560
  137PROX    C1 3116  11.324  15.718  13.506
  137PROX   H11 3117  11.289  15.640  13.577
  137PROX   H13 3118  11.238  15.772  13.459
  137PROX    C2 3119  11.390  15.654  13.386
  137PROX   H21 3120  11.484  15.608  13.423
  137PROX    C3 3121  11.439  15.761  13.280
  137PROX   H31 3122  11.478  15.712  13.188
  137PROX   H32 3123  11.357  15.832  13.260
  137PROX   H33 3124  11.529  15.816  13.314
  138PROX    O1 3125  11.301  15.555  13.320
  138PROX    C1 3126  11.374  15.445  13.257
  138PROX   H11 3127  11.477  15.478  13.230
  138PROX   H13 3128  11.380  15.355  13.322
  138PROX    C2 3129  11.319  15.406  13.109
  138PROX   H21 3130  11.211  15.386  13.127
  138PROX    C3 3131  11.380  15.282  13.044
  138PROX   H31 3132  11.359  15.269  12.936
  138PROX   H32 3133  11.490  15.292  13.057
  138PROX   H33 3134  11.351  15.187  13.093
  139PROX    O1 3135  11.337  15.516  13.021
  139PROX    C1 3136  11.232  15.611  13.027
  139PROX   H11 3137  11.139  15.552  13.011
  139PROX   H13 3138  11.220  15.652  13.129
  139PROX    C2 3139  11.247  15.723  12.926
  139PROX   H21 3140  11.231  15.663  12.834
  139PROX    C3 3141  11.391  15.798  12.920
  139PROX   H31 3142  11.412  15.825  13.026
  139PROX   H32 3143  11.463  15.718  12.891
  139PROX   H33 3144  11.393  15.874  12.840
  140PROX    O1 3145  11.143  15.820  12.933
  140PROX    C1 3146  11.126  15.888  12.814
  140PROX   H11 3147  11.160  15.991  12.839
  140PROX   H13 3148  11.187  15.848  12.731
  140PROX    C2 3149  10.979  15.889  12.770
  140PROX   H21 3150  10.921  15.926  12.857
  140PROX    C3 3151  10.938  15.743  12.728
  140PROX   H31 3152  10.942  15.670  12.811
  140PROX   H32 3153  10.838  15.733  12.681
  140PROX   H33 3154  11.020  15.721  12.656
  141PROX    O1 3155  10.960  15.977  12.659
  141PROX    C1 3156  10.921  16.103  12.709
  141PROX   H11 3157  10.967  16.129  12.807
  141PROX   H13 3158  10.951  16.181  12.637
  141PROX    C2 3159  10.767  16.125  12.734
  141PROX   H21 3160  10.738  16.025  12.771
  141PROX    C3 3161  10.700  16.162  12.594
  141PROX   H31 3162  10.738  16.263  12.567
  141PROX   H32 3163  10.711  16.089  12.512
  141PROX   H33 3164  10.592  16.169  12.620
  142PROX    O1 3165  10.745  16.228  12.828
  142PROX    C1 3166  10.624  16.207  12.900
  142PROX   H11 3167  10.594  16.304  12.944
  142PROX   H13 3168  10.550  16.180  12.822
  142PROX    C2 3169  10.639  16.102  13.020
  142PROX   H21 3170  10.649  15.999  12.979
  142PROX    C3 3171  10.523  16.098  13.115
  142PROX   H31 3172  10.430  16.079  13.057
  142PROX   H32 3173  10.538  16.017  13.190
  142PROX   H33 3174  10.514  16.197  13.165
  143PROX    O1 3175  10.752  16.140  13.098
  143PROX    C1 3176  10.823  16.027  13.150
  143PROX   H11 3177  10.744  15.956  13.185
  143PROX   H13 3178  10.870  15.978  13.061
  143PROX    C2 3179  10.918  16.064  13.262
  143PROX   H21 3180  10.998  16.132  13.226
  143PROX    C3 3181  10.978  15.938  13.321
  143PROX   H31 3182  11.043  15.969  13.406
  143PROX   H32 3183  10.896  15.877  13.365
  143PROX   H33 3184  11.042  15.880  13.251
  144PROX    O1 3185  10.849  16.124  13.367
  144PROX    C1 3186  10.876  16.262  13.373
  144PROX   H11 3187  10.884  16.300  13.268
  144PROX   H13 3188  10.795  16.313  13.430
  144PROX    C2 3189  11.000  16.289  13.466
  144PROX   H21 3190  11.090  16.241  13.421
  144PROX    C3 3191  10.981  16.220  13.604
  144PROX   H31 3192  10.889  16.255  13.654
  144PROX   H32 3193  10.978  16.109  13.591
  144PROX   H33 3194  11.075  16.244  13.659
  145PROX    O1 3195  11.024  16.426  13.472
  145PROX    C1 3196  11.094  16.473  13.357
  145PROX   H11 3197  11.175  16.399  13.341
  145PROX   H13 3198  11.019  16.470  13.275
  145PROX    C2 3199  11.155  16.615  13.372
  145PROX   H21 3200  11.243  16.610  13.439
  145PROX    C3 3201  11.051  16.712  13.424
  145PROX   H31 3202  11.081  16.818  13.411
  145PROX   H32 3203  10.957  16.700  13.366
  145PROX   H33 3204  11.029  16.686  13.530
  146PROX    O1 3205  11.200  16.657  13.241
  146PROX    C1 3206  11.287  16.769  13.246
  146PROX   H11 3207  11.230  16.861  13.271
  146PROX   H13 3208  11.372  16.763  13.317
  146PROX    C2 3209  11.361  16.797  13.104
  146PROX   H21 3210  11.453  16.855  13.124
  146PROX    C3 3211  11.276  16.884  13.008
  146PROX   H31 3212  11.208  16.955  13.060
  146PROX   H32 3213  11.338  16.939  12.934
  146PROX   H33 3214  11.210  16.824  12.943
  147PROX    O1 3215  11.387  16.674  13.038
  147PROX    C1 3216  11.512  16.621  13.078
  147PROX   H11 3217  11.586  16.704  13.074
  147PROX   H13 3218  11.506  16.591  13.184
  147PROX    C2 3219  11.550  16.517  12.976
  147PROX   H21 3220  11.461  16.456  12.950
  147PROX    C3 3221  11.666  16.430  13.029
  147PROX   H31 3222  11.629  16.369  13.114
  147PROX   H32 3223  11.691  16.361  12.946
  147PROX   H33 3224  11.751  16.498  13.049
  148PROX    O1 3225  11.601  16.579  12.856
  148PROX    C1 3226  11.498  16.597  12.758
  148PROX   H11 3227  11.439  16.504  12.741
  148PROX   H13 3228  11.437  16.684  12.788
  148PROX    C2 3229  11.583  16.626  12.628
  148PROX   H21 3230  11.646  16.537  12.604
  148PROX    C3 3231  11.665  16.754  12.645
  148PROX   H31 3232  11.691  16.797  12.546
  148PROX   H32 3233  11.594  16.822  12.697
  148PROX   H33 3234  11.755  16.730  12.705
  149PROX    O1 3235  11.503  16.661  12.509
  149PROX    C1 3236  11.448  16.552  12.427
  149PROX   H11 3237  11.507  16.458  12.433
  149PROX   H13 3238  11.351  16.538  12.479
  149PROX    C2 3239  11.432  16.602  12.285
  149PROX   H21 3240  11.518  16.656  12.240
  149PROX    C3 3241  11.305  16.699  12.275
  149PROX   H31 3242  11.326  16.785  12.342
  149PROX   H32 3243  11.278  16.734  12.173
  149PROX   H33 3244  11.217  16.643  12.312
  150PROX    O1 3245  11.397  16.498  12.202
  150PROX    C1 3246  11.514  16.427  12.159
  150PROX   H11 3247  11.591  16.497  12.120
  150PROX   H13 3248  11.553  16.378  12.250
  150PROX    C2 3249  11.481  16.317  12.063
  150PROX   H21 3250  11.458  16.365  11.965
  150PROX    C3 3251  11.361  16.237  12.108
  150PROX   H31 3252  11.349  16.148  12.043
  150PROX   H32 3253  11.372  16.212  12.216
  150PROX   H33 3254  11.267  16.293  12.088
  151PROX    O1 3255  11.591  16.226  12.067
  151PROX    C1 3256  11.630  16.173  11.941
  151PROX   H11 3257  11.543  16.148  11.877
  151PROX   H13 3258  11.692  16.248  11.886
  151PROX    C2 3259  11.714  16.045  11.964
  151PROX   H21 3260  11.786  16.064  12.047
  151PROX    C3 3261  11.804  16.011  11.842
  151PROX   H31 3262  11.745  15.998  11.748
  151PROX   H32 3263  11.874  16.097  11.828
  151PROX   H33 3264  11.858  15.915  11.856
  152PROX    O1 3265  11.623  15.933  11.983
  152PROX    C1 3266  11.566  15.927  12.116
  152PROX   H11 3267  11.644  15.946  12.193
  152PROX   H13 3268  11.483  15.999  12.131
  152PROX    C2 3269  11.494  15.797  12.145
  152PROX   H21 3270  11.570  15.719  12.122
  152PROX    C3 3271  11.365  15.774  12.056
  152PROX   H31 3272  11.290  15.849  12.090
  152PROX   H32 3273  11.387  15.777  11.947
  152PROX   H33 3274  11.334  15.669  12.076
  153PROX    O1 3275  11.447  15.792  12.276
  153PROX    C1 3276  11.546  15.750  12.367
  153PROX   H11 3277  11.508  15.660  12.421
  153PROX   H13 3278  11.644  15.721  12.323
  153PROX    C2 3279  11.559  15.852  12.483
  153PROX   H21 3280  11.593  15.948  12.439
  153PROX    C3 3281  11.657  15.805  12.597
  153PROX   H31 3282  11.606  15.718  12.644
  153PROX   H32 3283  11.749  15.764  12.550
  153PROX   H33 3284  11.674  15.889  12.667
  154PROX    O1 3285  11.428  15.874  12.547
  154PROX    C1 3286  11.360  15.992  12.518
  154PROX   H11 3287  11.350  16.010  12.409
  154PROX   H13 3288  11.253  15.987  12.550
  154PROX    C2 3289  11.409  16.120  12.600
  154PROX   H21 3290  11.404  16.090  12.707
  154PROX    C3 3291  11.316  16.244  12.579
  154PROX   H31 3292  11.212  16.210  12.599
  154PROX   H32 3293  11.340  16.319  12.658
  154PROX   H33 3294  11.316  16.286  12.476
  155PROX    O1 3295  11.539  16.156  12.559
  155PROX    C1 3296  11.609  16.260  12.635
  155PROX   H11 3297  11.545  16.350  12.624
  155PROX   H13 3298  11.599  16.234  12.743
  155PROX    C2 3299  11.755  16.275  12.599
  155PROX   H21 3300  11.801  16.178  12.574
  155PROX    C3 3301  11.837  16.353  12.709
  155PROX   H31 3302  11.932  16.393  12.668
  155PROX   H32 3303  11.764  16.431  12.740
  155PROX   H33 3304  11.852  16.293  12.801
  156PROX    O1 3305  11.759  16.362  12.483
  156PROX    C1 3306  11.846  16.314  12.378
  156PROX   H11 3307  11.928  16.249  12.415
  156PROX   H13 3308  11.792  16.270  12.291
  156PROX    C2 3309  11.919  16.434  12.310
  156PROX   H21 3310  11.847  16.510  12.271
  156PROX    C3 3311  12.012  16.387  12.188
  156PROX   H31 3312  12.074  16.303  12.227
  156PROX   H32 3313  11.951  16.350  12.104
  156PROX   H33 3314  12.071  16.474  12.151
  157PROX    O1 3315  12.012  16.488  12.394
  157PROX    C1 3316  11.964  16.589  12.479
  157PROX   H11 3317  11.909  16.659  12.412
  157PROX   H13 3318  11.891  16.547  12.551
  157PROX    C2 3319  12.075  16.660  12.555
  157PROX   H21 3320  12.030  16.747  12.606
  157PROX    C3 3321  12.191  16.708  12.475
  157PROX   H31 3322  12.263  16.769  12.534
  157PROX   H32 3323  12.250  16.620  12.442
  157PROX   H33 3324  12.155  16.758  12.383
  158PROX    O1 3325  12.115  16.569  12.659
  158PROX    C1 3326  12.177  16.632  12.770
  158PROX   H11 3327  12.284  16.614  12.748
  158PROX   H13 3328  12.170  16.743  12.774
  158PROX    C2 3329  12.142  16.566  12.899
  158PROX   H21 3330  12.156  16.456  12.890
  158PROX    C3 3331  11.993  16.587  12.941
  158PROX   H31 3332  11.920  16.573  12.858
  158PROX   H32 3333  11.973  16.519  13.027
  158PROX   H33 3334  11.964  16.689  12.974
  159PROX    O1 3335  12.230  16.619  13.001
  159PROX    C1 3336  12.253  16.516  13.099
  159PROX   H11 3337  12.158  16.486  13.149
  159PROX   H13 3338  12.292  16.427  13.046
  159PROX    C2 3339  12.355  16.566  13.207
  159PROX   H21 3340  12.421  16.648  13.172
  159PROX    C3 3341  12.436  16.442  13.249
  159PROX   H31 3342  12.368  16.359  13.278
  159PROX   H32 3343  12.509  16.407  13.173
  159PROX   H33 3344  12.481  16.468  13.346
  160PROX    O1 3345  12.279  16.599  13.327
  160PROX    C1 3346  12.208  16.722  13.317
  160PROX   H11 3347  12.275  16.805  13.285
  160PROX   H13 3348  12.119  16.710  13.251
  160PROX    C2 3349  12.147  16.756  13.452
  160PROX   H21 3350  12.106  16.857  13.429
  160PROX    C3 3351  12.247  16.766  13.567
  160PROX   H31 3352  12.198  16.804  13.660
  160PROX   H32 3353  12.284  16.663  13.586
  160PROX   H33 3354  12.325  16.840  13.542
  161PROX    O1 3355  12.046  16.661  13.488
  161PROX    C1 3356  11.917  16.699  13.439
  161PROX   H11 3357  11.884  16.779  13.508
  161PROX   H13 3358  11.927  16.731  13.333
  161PROX    C2 3359  11.817  16.581  13.461
  161PROX   H21 3360  11.816  16.564  13.571
  161PROX    C3 3361  11.848  16.447  13.386
  161PROX   H31 3362  11.771  16.368  13.399
  161PROX   H32 3363  11.842  16.456  13.275
  161PROX   H33 3364  11.945  16.398  13.408
  162PROX    O1 3365  11.686  16.626  13.416
  162PROX    C1 3366  11.585  16.622  13.526
  162PROX   H11 3367  11.620  16.686  13.610
  162PROX   H13 3368  11.493  16.672  13.490
  162PROX    C2 3369  11.551  16.480  13.572
  162PROX   H21 3370  11.649  16.430  13.589
  162PROX    C3 3371  11.479  16.405  13.460
  162PROX   H31 3372  11.456  16.301  13.490
  162PROX   H32 3373  11.378  16.450  13.451
  162PROX   H33 3374  11.542  16.407  13.368
  163PROX    O1 3375  11.476  16.487  13.687
  163PROX    C1 3376  11.448  16.357  13.734
  163PROX   H11 3377  11.376  16.304  13.668
  163PROX   H13 3378  11.544  16.301  13.739
  163PROX    C2 3379  11.394  16.358  13.880
  163PROX   H21 3380  11.434  16.441  13.942
  163PROX    C3 3381  11.421  16.218  13.937
  163PROX   H31 3382  11.527  16.187  13.921
  163PROX   H32 3383  11.406  16.213  14.047
  163PROX   H33 3384  11.351  16.146  13.890
  164PROX    O1 3385  11.251  16.379  13.875
  164PROX    C1 3386  11.209  16.503  13.811
  164PROX   H11 3387  11.248  16.520  13.708
  164PROX   H13 3388  11.100  16.497  13.789
  164PROX    C2 3389  11.227  16.628  13.895
  164PROX   H21 3390  11.331  16.627  13.934
  164PROX    C3 3391  11.130  16.630  14.012
  164PROX   H31 3392  11.038  16.574  13.985
  164PROX   H32 3393  11.176  16.581  14.100
  164PROX   H33 3394  11.117  16.739  14.030
  165PROX    O1 3395  11.210  16.742  13.816
  165PROX    C1 3396  11.276  16.860  13.856
  165PROX   H11 3397  11.219  16.914  13.935
  165PROX   H13 3398  11.378  16.836  13.893
  165PROX    C2 3399  11.296  16.961  13.741
  165PROX   H21 3400  11.202  16.979  13.684
  165PROX    C3 3401  11.396  16.910  13.641
  165PROX   H31 3402  11.414  16.979  13.556
  165PROX   H32 3403  11.494  16.900  13.693
  165PROX   H33 3404  11.358  16.815  13.599
  166ETHO    O1 3405  11.346  17.079  13.796
  166ETHO    C1 3406  11.333  17.196  13.717
  166ETHO   H11 3407  11.231  17.237  13.726
  166ETHO   H13 3408  11.360  17.177  13.610
  166ETHO    C2 3409  11.433  17.307  13.748
  166ETHO   H21 3410  11.408  17.323  13.855
  166ETHO   H23 3411  11.407  17.407  13.707
  167ETHO    O1 3412  11.566  17.279  13.739
  167ETHO    C1 3413  11.647  17.381  13.784
  167ETHO   H11 3414  11.616  17.437  13.874
  167ETHO   H13 3415  11.741  17.330  13.817
  167ETHO    C2 3416  11.696  17.476  13.672
  167ETHO   H21 3417  11.750  17.427  13.589
  167ETHO   H23 3418  11.775  17.542  13.716
  168ETHO    O1 3419  11.582  17.564  13.625
  168ETHO    C1 3420  11.601  17.620  13.501
  168ETHO   H11 3421  11.615  17.546  13.420
  168ETHO   H13 3422  11.687  17.690  13.496
  168ETHO    C2 3423  11.479  17.695  13.442
  168ETHO   H21 3424  11.391  17.630  13.462
  168ETHO   H23 3425  11.485  17.697  13.331
  169ETHO    O1 3426  11.490  17.833  13.501
  169ETHO    C1 3427  11.366  17.898  13.484
  169ETHO   H11 3428  11.389  18.005  13.502
  169ETHO   H13 3429  11.349  17.879  13.376
  169ETHO    C2 3430  11.258  17.842  13.577
  169ETHO   H21 3431  11.257  17.731  13.584
  169ETHO   H23 3432  11.165  17.880  13.529
  170ETHO    O1 3433  11.265  17.891  13.710
  170ETHO    C1 3434  11.160  17.838  13.781
  170ETHO   H11 3435  11.179  17.729  13.793
  170ETHO   H13 3436  11.063  17.845  13.729
  170ETHO    C2 3437  11.154  17.904  13.919
  170ETHO   H21 3438  11.260  17.899  13.951
  170ETHO   H23 3439  11.086  17.846  13.985
  171ETHO    O1 3440  11.098  18.042  13.928
  171ETHO    C1 3441  11.132  18.106  14.052
  171ETHO   H11 3442  11.117  18.032  14.133
  171ETHO   H13 3443  11.243  18.116  14.044
  171ETHO    C2 3444  11.067  18.239  14.071
  171ETHO   H21 3445  11.089  18.307  13.985
  171ETHO   H23 3446  11.115  18.280  14.163
  172ETHO    O1 3447  10.929  18.240  14.098
  172ETHO    C1 3448  10.841  18.280  13.998
  172ETHO   H11 3449  10.744  18.242  14.035
  172ETHO   H13 3450  10.869  18.221  13.908
  172ETHO    C2 3451  10.843  18.429  13.961
  172ETHO   H21 3452  10.780  18.435  13.869
  172ETHO   H23 3453  10.950  18.453  13.944
  173ETHO    O1 3454  10.791  18.518  14.056
  173ETHO    C1 3455  10.797  18.657  14.016
  173ETHO   H11 3456  10.904  18.678  13.993
  173ETHO   H13 3457  10.743  18.674  13.921
  173ETHO    C2 3458  10.750  18.756  14.118
  173ETHO   H21 3459  10.773  18.719  14.220
  173ETHO   H23 3460  10.823  18.840  14.116
  174ETHO    O1 3461  10.616  18.797  14.113
  174ETHO    C1 3462  10.524  18.692  14.138
  174ETHO   H11 3463  10.518  18.619  14.053
  174ETHO   H13 3464  10.549  18.630  14.227
  174ETHO    C2 3465  10.378  18.747  14.151
  174ETHO   H21 3466  10.370  18.834  14.220
  174ETHO   H23 3467  10.306  18.669  14.182
  175ETHO    O1 3468  10.333  18.790  14.020
  175ETHO    C1 3469  10.209  18.861  14.030
  175ETHO   H11 3470  10.149  18.782  14.079
  175ETHO   H13 3471  10.223  18.958  14.082
  175ETHO    C2 3472  10.132  18.892  13.903
  175ETHO   H21 3473  10.042  18.946  13.937
  175ETHO   H23 3474  10.102  18.795  13.858
  176ETHO    O1 3475  10.196  18.971  13.806
  176ETHO    C1 3476  10.103  19.050  13.739
  176ETHO   H11 3477  10.021  18.984  13.704
  176ETHO   H13 3478  10.063  19.130  13.805
  176ETHO    C2 3479  10.167  19.116  13.623
  176ETHO   H21 3480  10.189  19.044  13.541
  176ETHO   H23 3481  10.262  19.166  13.654
  177ETHO    O1 3482  10.076  19.210  13.566
  177ETHO    C1 3483  10.127  19.242  13.436
  177ETHO   H11 3484  10.122  19.149  13.376
  177ETHO   H13 3485  10.232  19.279  13.437
  177ETHO    C2 3486  10.025  19.335  13.370
  177ETHO   H21 3487  10.065  19.355  13.269
  177ETHO   H23 3488  10.016  19.433  13.421
  178ETHO    O1 3489   9.895  19.271  13.360
  178ETHO    C1 3490   9.794  19.368  13.353
  178ETHO   H11 3491   9.796  19.408  13.457
  178ETHO   H13 3492   9.813  19.449  13.279
  178ETHO    C2 3493   9.657  19.306  13.330
  178ETHO   H21 3494   9.569  19.365  13.365
  178ETHO   H23 3495   9.649  19.211  13.387
  179ETHO    O1 3496   9.634  19.264  13.192
  179ETHO    C1 3497   9.605  19.374  13.098
  179ETHO   H11 3498   9.690  19.443  13.081
  179ETHO   H13 3499   9.516  19.431  13.134
  179ETHO    C2 3500   9.563  19.325  12.955
  179ETHO   H21 3501   9.643  19.257  12.919
  179ETHO   H23 3502   9.541  19.415  12.893
  180ETHO    O1 3503   9.439  19.253  12.961
  180ETHO    C1 3504   9.421  19.172  12.842
  180ETHO   H11 3505   9.432  19.235  12.751
  180ETHO   H13 3506   9.504  19.098  12.840
  180ETHO    C2 3507   9.277  19.111  12.828
  180ETHO   H21 3508   9.236  19.079  12.926
  180ETHO   H23 3509   9.288  19.019  12.766
  181ETHO    O1 3510   9.195  19.189  12.750
  181ETHO    C1 3511   9.140  19.304  12.817
  181ETHO   H11 3512   9.220  19.381  12.820
  181ETHO   H13 3513   9.108  19.278  12.921
  181ETHO    C2 3514   9.022  19.354  12.736
  181ETHO   H21 3515   8.982  19.448  12.781
  181ETHO   H23 3516   8.940  19.278  12.736
  182ETHO    O1 3517   9.057  19.383  12.605
  182ETHO    C1 3518   8.950  19.434  12.529
  182ETHO   H11 3519   8.864  19.363  12.529
  182ETHO   H13 3520   8.914  19.517  12.593
  182ETHO    C2 3521   8.981  19.510  12.400
  182ETHO   H21 3522   9.041  19.602  12.418
  182ETHO   H23 3523   8.882  19.541  12.359
  183ETHO    O1 3524   9.042  19.433  12.300
  183ETHO    C1 3525   9.062  19.517  12.184
  183ETHO   H11 3526   9.092  19.618  12.217
  183ETHO   H13 3527   8.960  19.518  12.140
  183ETHO    C2 3528   9.140  19.439  12.081
  183ETHO   H21 3529   9.121  19.483  11.981
  183ETHO   H23 3530   9.092  19.339  12.071
  184ETHO    O1 3531   9.282  19.422  12.088
  184ETHO    C1 3532   9.335  19.365  11.967
  184ETHO   H11 3533   9.286  19.267  11.946
  184ETHO   H13 3534   9.295  19.418  11.877
  184ETHO    C2 3535   9.489  19.347  11.948
  184ETHO   H21 3536   9.498  19.291  11.852
  184ETHO   H23 3537   9.532  19.296  12.037
  185ETHO    O1 3538   9.547  19.479  11.914
  185ETHO    C1 3539   9.689  19.476  11.899
  185ETHO   H11 3540   9.721  19.419  11.989
  185ETHO   H13 3541   9.718  19.407  11.817
  185ETHO    C2 3542   9.752  19.616  11.885
  185ETHO   H21 3543   9.725  19.646  11.781
  185ETHO   H23 3544   9.862  19.624  11.888
  186ETHO    O1 3545   9.682  19.698  11.979
  186ETHO    C1 3546   9.750  19.825  11.981
  186ETHO   H11 3547   9.856  19.813  12.012
  186ETHO   H13 3548   9.736  19.869  11.881
  186ETHO    C2 3549   9.687  19.926  12.085
  186ETHO   H21 3550   9.759  20.003  12.120
  186ETHO   H23 3551   9.676  19.866  12.178
  187ETHO    O1 3552   9.570  19.990  12.038
  187ETHO    C1 3553   9.459  19.906  12.070
  187ETHO   H11 3554   9.479  19.799  12.050
  187ETHO   H13 3555   9.436  19.929  12.177
  187ETHO    C2 3556   9.330  19.947  11.995
  187ETHO   H21 3557   9.303  20.052  12.016
  187ETHO   H23 3558   9.245  19.887  12.033
  188ETHO    O1 3559   9.340  19.938  11.851
  188ETHO    C1 3560   9.208  19.917  11.805
  188ETHO   H11 3561   9.142  19.993  11.852
  188ETHO   H13 3562   9.180  19.815  11.839
  188ETHO    C2 3563   9.190  19.936  11.654
  188ETHO   H21 3564   9.096  19.879  11.635
  188ETHO   H23 3565   9.270  19.878  11.603
  189ETHO    O1 3566   9.168  20.071  11.609
  189ETHO    C1 3567   9.292  20.131  11.576
  189ETHO   H11 3568   9.357  20.136  11.666
  189ETHO   H13 3569   9.329  20.071  11.490
  189ETHO    C2 3570   9.282  20.285  11.531
  189ETHO   H21 3571   9.217  20.279  11.441
  189ETHO   H23 3572   9.385  20.320  11.509
  190ETHO    O1 3573   9.213  20.367  11.626
  190ETHO    C1 3574   9.230  20.504  11.594
  190ETHO   H11 3575   9.209  20.511  11.486
  190ETHO   H13 3576   9.337  20.526  11.616
  190ETHO    C2 3577   9.145  20.590  11.687
  190ETHO   H21 3578   9.042  20.551  11.676
  190ETHO   H23 3579   9.140  20.694  11.648
  191ETHO    O1 3580   9.188  20.594  11.825
  191ETHO    C1 3581   9.145  20.707  11.892
  191ETHO   H11 3582   9.186  20.800  11.847
  191ETHO   H13 3583   9.034  20.707  11.886
  191ETHO    C2 3584   9.190  20.708  12.034
  191ETHO   H21 3585   9.118  20.645  12.091
  191ETHO   H23 3586   9.178  20.807  12.082
  192ETHO    O1 3587   9.327  20.668  12.061
  192ETHO    C1 3588   9.381  20.729  12.173
  192ETHO   H11 3589   9.328  20.709  12.268
  192ETHO   H13 3590   9.386  20.839  12.163
  192ETHO    C2 3591   9.521  20.677  12.197
  192ETHO   H21 3592   9.513  20.571  12.231
  192ETHO   H23 3593   9.566  20.729  12.285
  193ETHO    O1 3594   9.598  20.697  12.076
  193ETHO    C1 3595   9.734  20.705  12.100
  193ETHO   H11 3596   9.742  20.809  12.138
  193ETHO   H13 3597   9.762  20.649  12.192
  193ETHO    C2 3598   9.823  20.680  11.973
  193ETHO   H21 3599   9.925  20.721  11.984
  193ETHO   H23 3600   9.775  20.711  11.878
  194ETHO    O1 3601   9.829  20.536  11.964
  194ETHO    C1 3602   9.930  20.491  11.874
  194ETHO   H11 3603  10.027  20.536  11.902
  194ETHO   H13 3604   9.900  20.543  11.781
  194ETHO    C2 3605   9.943  20.341  11.853
  194ETHO   H21 3606   9.990  20.323  11.754
  194ETHO   H23 3607   9.846  20.287  11.842
  195ETHO    O1 3608  10.018  20.272  11.953
  195ETHO    C1 3609  10.030  20.132  11.934
  195ETHO   H11 3610   9.932  20.085  11.954
  195ETHO   H13 3611  10.074  20.115  11.834
  195ETHO    C2 3612  10.119  20.080  12.051
  195ETHO   H21 3613  10.207  20.148  12.053
  195ETHO   H23 3614  10.141  19.973  12.030
  196ETHO    O1 3615  10.060  20.084  12.179
  196ETHO    C1 3616  10.153  20.039  12.278
  196ETHO   H11 3617  10.252  20.064  12.234
  196ETHO   H13 3618  10.144  20.113  12.361
  196ETHO    C2 3619  10.130  19.895  12.309
  196ETHO   H21 3620  10.223  19.850  12.350
  196ETHO   H23 3621  10.110  19.844  12.212
  197ETHO    O1 3622  10.031  19.871  12.400
  197ETHO    C1 3623   9.903  19.910  12.352
  197ETHO   H11 3624   9.910  20.020  12.352
  197ETHO   H13 3625   9.893  19.874  12.248
  197ETHO    C2 3626   9.798  19.852  12.440
  197ETHO   H21 3627   9.698  19.886  12.406
  197ETHO   H23 3628   9.818  19.878  12.546
  198ETHO    O1 3629   9.798  19.713  12.427
  198ETHO    C1 3630   9.702  19.656  12.511
  198ETHO   H11 3631   9.699  19.699  12.613
  198ETHO   H13 3632   9.600  19.683  12.476
  198ETHO    C2 3633   9.704  19.502  12.517
  198ETHO   H21 3634   9.709  19.463  12.413
  198ETHO   H23 3635   9.616  19.460  12.571
  199ETHO    O1 3636   9.820  19.457  12.582
  199ETHO    C1 3637   9.786  19.383  12.694
  199ETHO   H11 3638   9.728  19.293  12.666
  199ETHO   H13 3639   9.720  19.446  12.758
  199ETHO    C2 3640   9.908  19.344  12.783
  199ETHO   H21 3641   9.877  19.341  12.890
  199ETHO   H23 3642   9.981  19.425  12.762
  200ETHO    O1 3643   9.958  19.222  12.729
  200ETHO    C1 3644  10.073  19.167  12.794
  200ETHO   H11 3645  10.166  19.203  12.745
  200ETHO   H13 3646  10.069  19.179  12.904
  200ETHO    C2 3647  10.082  19.012  12.797
  200ETHO   H21 3648   9.994  18.985  12.859
  200ETHO   H23 3649  10.172  18.975  12.850
  201ETHO    O1 3650  10.080  18.941  12.668
  201ETHO    C1 3651  10.010  18.821  12.673
  201ETHO   H11 3652   9.912  18.837  12.722
  201ETHO   H13 3653  10.073  18.767  12.747
  201ETHO    C2 3654  10.010  18.750  12.533
  201ETHO   H21 3655   9.986  18.834  12.464
  201ETHO   H23 3656   9.940  18.664  12.520
  202ETHO    O1 3657  10.133  18.703  12.478
  202ETHO    C1 3658  10.120  18.643  12.346
  202ETHO   H11 3659  10.049  18.559  12.359
  202ETHO   H13 3660  10.084  18.728  12.284
  202ETHO    C2 3661  10.258  18.588  12.300
  202ETHO   H21 3662  10.250  18.532  12.204
  202ETHO   H23 3663  10.297  18.516  12.375
  203ETHO    O1 3664  10.354  18.698  12.286
  203ETHO    C1 3665  10.473  18.643  12.234
  203ETHO   H11 3666  10.448  18.566  12.158
  203ETHO   H13 3667  10.526  18.589  12.315
  203ETHO    C2 3668  10.571  18.752  12.190
  203ETHO   H21 3669  10.531  18.831  12.123
  203ETHO   H23 3670  10.659  18.702  12.144
  204ETHO    O1 3671  10.634  18.804  12.302
  204ETHO    C1 3672  10.711  18.917  12.257
  204ETHO   H11 3673  10.794  18.873  12.197
  204ETHO   H13 3674  10.655  18.993  12.200
  204ETHO    C2 3675  10.757  18.994  12.384
  204ETHO   H21 3676  10.661  19.020  12.434
  204ETHO   H23 3677  10.812  19.082  12.345
  205ETHO    O1 3678  10.839  18.922  12.474
  205ETHO    C1 3679  10.840  18.979  12.600
  205ETHO   H11 3680  10.813  19.085  12.581
  205ETHO   H13 3681  10.937  18.965  12.651
  205ETHO    C2 3682  10.725  18.913  12.682
  205ETHO   H21 3683  10.632  18.901  12.621
  205ETHO   H23 3684  10.717  18.981  12.769
  206ETHO    O1 3685  10.763  18.789  12.733
  206ETHO    C1 3686  10.656  18.719  12.803
  206ETHO   H11 3687  10.616  18.794  12.873
  206ETHO   H13 3688  10.578  18.696  12.727
  206ETHO    C2 3689  10.716  18.608  12.886
  206ETHO   H21 3690  10.803  18.653  12.938
  206ETHO   H23 3691  10.638  18.577  12.959
  207ETHO    O1 3692  10.751  18.497  12.806
  207ETHO    C1 3693  10.763  18.380  12.885
  207ETHO   H11 3694  10.771  18.287  12.825
  207ETHO   H13 3695  10.676  18.360  12.951
  207ETHO    C2 3696  10.883  18.364  12.970
  207ETHO   H21 3697  10.870  18.445  13.045
  207ETHO   H23 3698  10.979  18.367  12.914
  208ETHO    O1 3699  10.866  18.238  13.032
  208ETHO    C1 3700  10.933  18.226  13.158
  208ETHO   H11 3701  11.042  18.209  13.151
  208ETHO   H13 3702  10.922  18.317  13.221
  208ETHO    C2 3703  10.855  18.118  13.239
  208ETHO   H21 3704  10.747  18.141  13.239
  208ETHO   H23 3705  10.890  18.124  13.344
  209ETHO    O1 3706  10.872  17.990  13.180
  209ETHO    C1 3707  10.819  17.888  13.265
  209ETHO   H11 3708  10.806  17.798  13.201
  209ETHO   H13 3709  10.715  17.919  13.288
  209ETHO    C2 3710  10.912  17.867  13.385
  209ETHO   H21 3711  10.848  17.804  13.450
  209ETHO   H23 3712  10.943  17.957  13.442
  210ETHO    O1 3713  11.021  17.783  13.358
  210ETHO    C1 3714  10.988  17.641  13.364
  210ETHO   H11 3715  10.949  17.617  13.466
  210ETHO   H13 3716  10.901  17.620  13.298
  210ETHO    C2 3717  11.101  17.544  13.325
  210ETHO   H21 3718  11.185  17.594  13.376
  210ETHO   H23 3719  11.111  17.562  13.216
  211ETHO    O1 3720  11.063  17.411  13.369
  211ETHO    C1 3721  11.157  17.321  13.314
  211ETHO   H11 3722  11.187  17.347  13.210
  211ETHO   H13 3723  11.243  17.339  13.383
  211ETHO    C2 3724  11.105  17.175  13.321
  211ETHO   H21 3725  11.069  17.142  13.421
  211ETHO   H23 3726  11.186  17.103  13.295
  212ETHO    O1 3727  11.008  17.152  13.223
  212ETHO    C1 3728  10.941  17.022  13.245
  212ETHO   H11 3729  11.010  16.935  13.241
  212ETHO   H13 3730  10.893  17.012  13.345
  212ETHO    C2 3731  10.839  16.995  13.138
  212ETHO   H21 3732  10.875  17.004  13.033
  212ETHO   H23 3733  10.759  17.073  13.140
  213ETHO    O1 3734  10.791  16.866  13.164
  213ETHO    C1 3735  10.680  16.841  13.075
  213ETHO   H11 3736  10.591  16.844  13.141
  213ETHO   H13 3737  10.674  16.903  12.982
  213ETHO    C2 3738  10.690  16.687  13.033
  213ETHO   H21 3739  10.585  16.666  13.004
  213ETHO   H23 3740  10.715  16.621  13.119
  214ETHO    O1 3741  10.765  16.668  12.918
  214ETHO    C1 3742  10.908  16.679  12.931
  214ETHO   H11 3743  10.920  16.764  13.001
  214ETHO   H13 3744  10.944  16.701  12.828
  214ETHO    C2 3745  10.993  16.554  12.985
  214ETHO   H21 3746  10.944  16.499  13.069
  214ETHO   H23 3747  11.093  16.588  13.019
  215ETHO    O1 3748  11.009  16.464  12.875
  215ETHO    C1 3749  11.129  16.390  12.888
  215ETHO   H11 3750  11.140  16.335  12.792
  215ETHO   H13 3751  11.218  16.456  12.876
  215ETHO    C2 3752  11.133  16.289  12.999
  215ETHO   H21 3753  11.047  16.218  12.988
  215ETHO   H23 3754  11.117  16.340  13.097
  216ETHO    O1 3755  11.261  16.218  13.003
  216ETHO    C1 3756  11.279  16.130  13.107
  216ETHO   H11 3757  11.283  16.025  13.070
  216ETHO   H13 3758  11.193  16.147  13.176
  216ETHO    C2 3759  11.412  16.171  13.167
  216ETHO   H21 3760  11.424  16.277  13.196
  216ETHO   H23 3761  11.499  16.145  13.104
  217ETHO    O1 3762  11.442  16.096  13.290
  217ETHO    C1 3763  11.578  16.099  13.312
  217ETHO   H11 3764  11.619  16.028  13.237
  217ETHO   H13 3765  11.624  16.197  13.287
  217ETHO    C2 3766  11.626  16.055  13.455
  217ETHO   H21 3767  11.610  15.945  13.460
  217ETHO   H23 3768  11.574  16.097  13.544
  218ETHO    O1 3769  11.760  16.086  13.463
  218ETHO    C1 3770  11.829  16.015  13.570
  218ETHO   H11 3771  11.841  15.908  13.542
  218ETHO   H13 3772  11.759  16.007  13.656
  218ETHO    C2 3773  11.957  16.076  13.622
  218ETHO   H21 3774  12.008  16.148  13.555
  218ETHO   H23 3775  12.030  15.996  13.651
  219ETHO    O1 3776  11.921  16.160  13.726
  219ETHO    C1 3777  12.036  16.184  13.804
  219ETHO   H11 3778  12.073  16.091  13.851
  219ETHO   H13 3779  12.122  16.224  13.746
  219ETHO    C2 3780  12.019  16.293  13.910
  219ETHO   H21 3781  11.990  16.379  13.846
  219ETHO   H23 3782  12.108  16.326  13.967
  220ETHO    O1 3783  11.928  16.250  14.008
  220ETHO    C1 3784  11.896  16.352  14.093
  220ETHO   H11 3785  11.981  16.407  14.138
  220ETHO   H13 3786  11.847  16.302  14.180
  220ETHO    C2 3787  11.796  16.457  14.027
  220ETHO   H21 3788  11.760  16.513  14.116
  220ETHO   H23 3789  11.704  16.411  13.987
  221ETHO    O1 3790  11.848  16.552  13.933
  221ETHO    C1 3791  11.750  16.633  13.876
  221ETHO   H11 3792  11.689  16.574  13.803
  221ETHO   H13 3793  11.680  16.676  13.951
  221ETHO    C2 3794  11.820  16.754  13.810
  221ETHO   H21 3795  11.741  16.804  13.749
  221ETHO   H23 3796  11.905  16.724  13.745
  222ETHO    O1 3797  11.864  16.836  13.918
  222ETHO    C1 3798  11.946  16.943  13.871
  222ETHO   H11 3799  11.979  17.014  13.949
  222ETHO   H13 3800  12.039  16.913  13.818
  222ETHO    C2 3801  11.868  17.031  13.770
  222ETHO   H21 3802  11.896  17.138  13.771
  222ETHO   H23 3803  11.760  17.037  13.798
  223ETHO    O1 3804  11.876  16.982  13.640
  223ETHO    C1 3805  11.760  17.018  13.563
  223ETHO   H11 3806  11.692  16.931  13.576
  223ETHO   H13 3807  11.725  17.113  13.608
  223ETHO    C2 3808  11.786  17.034  13.416
  223ETHO   H21 3809  11.852  16.955  13.375
  223ETHO   H23 3810  11.854  17.121  13.409
  224ETHO    O1 3811  11.677  17.053  13.327
  224ETHO    C1 3812  11.636  17.187  13.319
  224ETHO   H11 3813  11.640  17.253  13.408
  224ETHO   H13 3814  11.696  17.234  13.239
  224ETHO    C2 3815  11.490  17.187  13.265
  224ETHO   H21 3816  11.417  17.179  13.347
  224ETHO   H23 3817  11.474  17.097  13.202
  225ETHO    O1 3818  11.457  17.313  13.195
  225ETHO    C1 3819  11.518  17.321  13.065
  225ETHO   H11 3820  11.495  17.226  13.014
  225ETHO   H13 3821  11.628  17.334  13.056
  225ETHO    C2 3822  11.453  17.429  12.980
  225ETHO   H21 3823  11.353  17.443  13.025
  225ETHO   H23 3824  11.439  17.404  12.872
  226ETHO    O1 3825  11.519  17.551  12.990
  226ETHO    C1 3826  11.438  17.653  12.938
  226ETHO   H11 3827  11.412  17.615  12.837
  226ETHO   H13 3828  11.339  17.646  12.987
  226ETHO    C2 3829  11.507  17.792  12.927
  226ETHO   H21 3830  11.535  17.815  13.032
  226ETHO   H23 3831  11.434  17.872  12.902
  227ETHO    O1 3832  11.607  17.777  12.827
  227ETHO    C1 3833  11.561  17.816  12.693
  227ETHO   H11 3834  11.451  17.804  12.683
  227ETHO   H13 3835  11.599  17.751  12.611
  227ETHO    C2 3836  11.602  17.955  12.646
  227ETHO   H21 3837  11.571  17.953  12.540
  227ETHO   H23 3838  11.712  17.958  12.659
  228ETHO    O1 3839  11.531  18.052  12.729
  228ETHO    C1 3840  11.567  18.188  12.701
  228ETHO   H11 3841  11.486  18.244  12.753
  228ETHO   H13 3842  11.661  18.220  12.752
  228ETHO    C2 3843  11.553  18.238  12.554
  228ETHO   H21 3844  11.611  18.170  12.488
  228ETHO   H23 3845  11.603  18.336  12.536
  229ETHO    O1 3846  11.416  18.236  12.512
  229ETHO    C1 3847  11.393  18.247  12.368
  229ETHO   H11 3848  11.285  18.266  12.350
  229ETHO   H13 3849  11.411  18.153  12.312
  229ETHO    C2 3850  11.461  18.361  12.304
  229ETHO   H21 3851  11.436  18.350  12.196
  229ETHO   H23 3852  11.571  18.349  12.300
  230ETHO    O1 3853  11.424  18.490  12.345
  230ETHO    C1 3854  11.477  18.589  12.277
  230ETHO   H11 3855  11.494  18.577  12.168
  230ETHO   H13 3856  11.402  18.671  12.288
  230ETHO    C2 3857  11.602  18.647  12.352
  230ETHO   H21 3858  11.577  18.672  12.457
  230ETHO   H23 3859  11.627  18.746  12.308
  231ETHO    O1 3860  11.713  18.567  12.350
  231ETHO    C1 3861  11.826  18.621  12.417
  231ETHO   H11 3862  11.807  18.633  12.525
  231ETHO   H13 3863  11.848  18.724  12.382
  231ETHO    C2 3864  11.953  18.546  12.392
  231ETHO   H21 3865  12.019  18.588  12.471
  231ETHO   H23 3866  11.981  18.555  12.285
  232ETHO    O1 3867  11.946  18.406  12.411
  232ETHO    C1 3868  12.038  18.336  12.332
  232ETHO   H11 3869  12.014  18.342  12.223
  232ETHO   H13 3870  12.138  18.377  12.359
  232ETHO    C2 3871  12.070  18.191  12.367
  232ETHO   H21 3872  12.142  18.162  12.287
  232ETHO   H23 3873  11.977  18.131  12.357
  233ETHO    O1 3874  12.122  18.176  12.499
  233ETHO    C1 3875  12.178  18.047  12.514
  233ETHO   H11 3876  12.135  17.971  12.446
  233ETHO   H13 3877  12.288  18.045  12.506
  233ETHO    C2 3878  12.146  17.995  12.659
  233ETHO   H21 3879  12.188  18.070  12.730
  233ETHO   H23 3880  12.194  17.896  12.672
  234ETHO    O1 3881  12.008  17.976  12.681
  234ETHO    C1 3882  11.977  17.913  12.801
  234ETHO   H11 3883  11.885  17.858  12.773
  234ETHO   H13 3884  12.046  17.838  12.845
  234ETHO    C2 3885  11.940  18.025  12.899
  234ETHO   H21 3886  11.869  17.978  12.969
  234ETHO   H23 3887  11.898  18.112  12.843
  235ETHO    O1 3888  12.060  18.063  12.953
  235ETHO    C1 3889  12.041  18.170  13.048
  235ETHO   H11 3890  11.967  18.238  12.999
  235ETHO   H13 3891  11.989  18.112  13.127
  235ETHO    C2 3892  12.164  18.236  13.105
  235ETHO   H21 3893  12.242  18.163  13.136
  235ETHO   H23 3894  12.157  18.301  13.194
  236ETHO    O1 3895  12.211  18.315  12.998
  236ETHO    C1 3896  12.337  18.371  13.029
  236ETHO   H11 3897  12.409  18.291  13.054
  236ETHO   H13 3898  12.331  18.437  13.118
  236ETHO    C2 3899  12.403  18.423  12.898
  236ETHO   H21 3900  12.375  18.349  12.820
  236ETHO   H23 3901  12.514  18.421  12.898
  237ETHO    O1 3902  12.341  18.547  12.879
  237ETHO    C1 3903  12.407  18.655  12.945
  237ETHO   H11 3904  12.364  18.668  13.046
  237ETHO   H13 3905  12.515  18.636  12.965
  237ETHO    C2 3906  12.396  18.783  12.859
  237ETHO   H21 3907  12.394  18.877  12.919
  237ETHO   H23 3908  12.296  18.776  12.812
  238ETHO    O1 3909  12.493  18.792  12.757
  238ETHO    C1 3910  12.618  18.826  12.807
  238ETHO   H11 3911  12.666  18.756  12.878
  238ETHO   H13 3912  12.595  18.922  12.859
  238ETHO    C2 3913  12.706  18.861  12.684
  238ETHO   H21 3914  12.762  18.955  12.704
  238ETHO   H23 3915  12.645  18.871  12.592
  239ETHO    O1 3916  12.807  18.759  12.659
  239ETHO    C1 3917  12.901  18.801  12.556
  239ETHO   H11 3918  12.938  18.902  12.581
  239ETHO   H13 3919  12.988  18.737  12.581
  239ETHO    C2 3920  12.850  18.796  12.408
  239ETHO   H21 3921  12.935  18.779  12.339
  239ETHO   H23 3922  12.782  18.708  12.399
  240ETHO    O1 3923  12.780  18.912  12.378
  240ETHO    C1 3924  12.761  18.926  12.233
  240ETHO   H11 3925  12.705  18.834  12.210
  240ETHO   H13 3926  12.860  18.925  12.183
  240ETHO    C2 3927  12.679  19.053  12.193
  240ETHO   H21 3928  12.704  19.074  12.087
  240ETHO   H23 3929  12.709  19.138  12.257
  241ETHO    O1 3930  12.541  19.027  12.200
  241ETHO    C1 3931  12.499  18.994  12.336
  241ETHO   H11 3932  12.522  18.889  12.362
  241ETHO   H13 3933  12.571  19.044  12.404
  241ETHO    C2 3934  12.363  19.058  12.374
  241ETHO   H21 3935  12.333  18.998  12.463
  241ETHO   H23 3936  12.292  19.035  12.292
  242ETHO    O1 3937  12.376  19.195  12.399
  242ETHO    C1 3938  12.255  19.266  12.411
  242ETHO   H11 3939  12.185  19.241  12.329
  242ETHO   H13 3940  12.279  19.375  12.403
  242ETHO    C2 3941  12.189  19.248  12.547
  242ETHO   H21 3942  12.250  19.292  12.628
  242ETHO   H23 3943  12.184  19.140  12.570
  243ETHO    O1 3944  12.065  19.308  12.542
  243ETHO    C1 3945  12.024  19.343  12.673
  243ETHO   H11 3946  12.009  19.248  12.728
  243ETHO   H13 3947  12.093  19.414  12.722
  243ETHO    C2 3948  11.888  19.409  12.674
  243ETHO   H21 3949  11.885  19.498  12.608
  243ETHO   H23 3950  11.851  19.443  12.773
  244ETHO    O1 3951  11.788  19.322  12.625
  244ETHO    C1 3952  11.662  19.379  12.602
  244ETHO   H11 3953  11.613  19.320  12.522
  244ETHO   H13 3954  11.674  19.485  12.570
  244ETHO    C2 3955  11.577  19.369  12.727
  244ETHO   H21 3956  11.606  19.273  12.774
  244ETHO   H23 3957  11.470  19.361  12.698
  245ETHO    O1 3958  11.597  19.472  12.823
  245ETHO    C1 3959  11.541  19.432  12.946
  245ETHO   H11 3960  11.442  19.386  12.925
  245ETHO   H13 3961  11.598  19.352  12.999
  245ETHO    C2 3962  11.523  19.541  13.049
  245ETHO   H21 3963  11.457  19.503  13.129
  245ETHO   H23 3964  11.493  19.635  12.998
  246ETHO    O1 3965  11.644  19.590  13.120
  246ETHO    C1 3966  11.679  19.512  13.236
  246ETHO   H11 3967  11.727  19.417  13.205
  246ETHO   H13 3968  11.603  19.484  13.313
  246ETHO    C2 3969  11.796  19.586  13.302
  246ETHO   H21 3970  11.869  19.612  13.222
  246ETHO   H23 3971  11.838  19.514  13.375
  247ETHO    O1 3972  11.750  19.701  13.371
  247ETHO    C1 3973  11.854  19.773  13.447
  247ETHO   H11 3974  11.955  19.770  13.401
  247ETHO   H13 3975  11.832  19.882  13.452
  247ETHO    C2 3976  11.852  19.719  13.595
  247ETHO   H21 3977  11.899  19.618  13.603
  247ETHO   H23 3978  11.900  19.793  13.661
  248ETHO    O1 3979  11.711  19.708  13.647
  248ETHO    C1 3980  11.690  19.759  13.773
  248ETHO   H11 3981  11.752  19.693  13.838
  248ETHO   H13 3982  11.734  19.860  13.787
  248ETHO    C2 3983  11.549  19.732  13.820
  248ETHO   H21 3984  11.523  19.786  13.913
  248ETHO   H23 3985  11.536  19.622  13.822
  249ETHO    O1 3986  11.450  19.784  13.731
  249ETHO    C1 3987  11.330  19.724  13.752
  249ETHO   H11 3988  11.351  19.615  13.745
  249ETHO   H13 3989  11.291  19.748  13.853
  249ETHO    C2 3990  11.246  19.779  13.647
  249ETHO   H21 3991  11.144  19.737  13.662
  249ETHO   H23 3992  11.258  19.742  13.543
  250ETHO    O1 3993  11.232  19.923  13.648
  250ETHO    C1 3994  11.146  19.957  13.543
  250ETHO   H11 3995  11.188  19.936  13.442
  250ETHO   H13 3996  11.040  19.927  13.553
  250ETHO    C2 3997  11.140  20.106  13.518
  250ETHO   H21 3998  11.065  20.100  13.436
  250ETHO   H23 3999  11.234  20.160  13.493
  251ETHO    O1 4000  11.061  20.164  13.622
  251ETHO    C1 4001  11.030  20.302  13.607
  251ETHO   H11 4002  11.028  20.323  13.498
  251ETHO   H13 4003  11.109  20.372  13.639
  251ETHO    C2 4004  10.897  20.345  13.672
  251ETHO   H21 4005  10.885  20.455  13.660
  251ETHO   H23 4006  10.905  20.309  13.777
  252ETHO    O1 4007  10.793  20.277  13.600
  252ETHO    C1 4008  10.666  20.328  13.644
  252ETHO   H11 4009  10.653  20.316  13.754
  252ETHO   H13 4010  10.657  20.436  13.622
  252ETHO    C2 4011  10.555  20.242  13.575
  252ETHO   H21 4012  10.455  20.284  13.597
  252ETHO   H23 4013  10.555  20.137  13.613
  253ETHO    O1 4014  10.560  20.253  13.435
  253ETHO    C1 4015  10.471  20.158  13.376
  253ETHO   H11 4016  10.368  20.183  13.409
  253ETHO   H13 4017  10.510  20.058  13.407
  253ETHO    C2 4018  10.483  20.169  13.226
  253ETHO   H21 4019  10.437  20.082  13.175
  253ETHO   H23 4020  10.591  20.179  13.200
  254ETHO    O1 4021  10.434  20.289  13.179
  254ETHO    C1 4022  10.376  20.284  13.049
  254ETHO   H11 4023  10.418  20.201  12.988
  254ETHO   H13 4024  10.267  20.278  13.069
  254ETHO    C2 4025  10.386  20.420  12.973
  254ETHO   H21 4026  10.370  20.495  13.053
  254ETHO   H23 4027  10.318  20.409  12.886
  255ETHO    O1 4028  10.521  20.429  12.921
  255ETHO    C1 4029  10.524  20.504  12.801
  255ETHO   H11 4030  10.488  20.603  12.838
  255ETHO   H13 4031  10.451  20.455  12.734
  255ETHO    C2 4032  10.664  20.518  12.743
  255ETHO   H21 4033  10.724  20.591  12.801
  255ETHO   H23 4034  10.657  20.565  12.643
  256ETHO    O1 4035  10.735  20.390  12.730
  256ETHO    C1 4036  10.859  20.409  12.665
  256ETHO   H11 4037  10.855  20.477  12.578
  256ETHO   H13 4038  10.936  20.465  12.723
  256ETHO    C2 4039  10.923  20.276  12.635
  256ETHO   H21 4040  11.021  20.294  12.585
  256ETHO   H23 4041  10.854  20.218  12.570
  257ETHO    O1 4042  10.956  20.207  12.762
  257ETHO    C1 4043  11.021  20.086  12.748
  257ETHO   H11 4044  11.108  20.105  12.681
  257ETHO   H13 4045  10.950  20.011  12.707
  257ETHO    C2 4046  11.075  20.042  12.878
  257ETHO   H21 4047  10.995  20.046  12.954
  257ETHO   H23 4048  11.157  20.112  12.906
  258ETHO    O1 4049  11.131  19.916  12.882
  258ETHO    C1 4050  11.202  19.896  13.005
  258ETHO   H11 4051  11.278  19.977  13.007
  258ETHO   H13 4052  11.140  19.920  13.094
  258ETHO    C2 4053  11.262  19.760  13.027
  258ETHO   H21 4054  11.334  19.758  13.111
  258ETHO   H23 4055  11.319  19.735  12.935
  259ETHO    O1 4056  11.180  19.647  13.040
  259ETHO    C1 4057  11.106  19.658  13.157
  259ETHO   H11 4058  11.114  19.561  13.210
  259ETHO   H13 4059  11.151  19.733  13.226
  259ETHO    C2 4060  10.959  19.675  13.111
  259ETHO   H21 4061  10.962  19.758  13.036
  259ETHO   H23 4062  10.894  19.713  13.193
  260ETHO    O1 4063  10.901  19.554  13.052
  260ETHO    C1 4064  10.767  19.575  13.008
  260ETHO   H11 4065  10.707  19.624  13.088
  260ETHO   H13 4066  10.768  19.638  12.916
  260ETHO    C2 4067  10.705  19.439  12.973
  260ETHO   H21 4068  10.774  19.376  12.913
  260ETHO   H23 4069  10.614  19.450  12.910
  261ETHO    O1 4070  10.653  19.359  13.078
  261ETHO    C1 4071  10.746  19.321  13.175
  261ETHO   H11 4072  10.764  19.413  13.235
  261ETHO   H13 4073  10.681  19.257  13.239
  261ETHO    C2 4074  10.880  19.252  13.150
  261ETHO   H21 4075  10.956  19.283  13.224
  261ETHO   H23 4076  10.932  19.293  13.060
  262ETHO    O1 4077  10.861  19.111  13.135
  262ETHO    C1 4078  10.944  19.035  13.060
  262ETHO   H11 4079  11.044  19.052  13.106
  262ETHO   H13 4080  10.941  19.080  12.959
  262ETHO    C2 4081  10.914  18.886  13.052
  262ETHO   H21 4082  10.985  18.852  12.973
  262ETHO   H23 4083  10.810  18.873  13.014
  263ETHO    O1 4084  10.939  18.825  13.172
  263ETHO    C1 4085  10.897  18.695  13.195
  263ETHO   H11 4086  10.937  18.612  13.133
  263ETHO   H13 4087  10.787  18.693  13.186
  263ETHO    C2 4088  10.924  18.666  13.339
  263ETHO   H21 4089  10.866  18.581  13.381
  263ETHO   H23 4090  10.903  18.756  13.400
  264ETHO    O1 4091  11.060  18.634  13.342
  264ETHO    C1 4092  11.114  18.642  13.469
  264ETHO   H11 4093  11.067  18.578  13.547
  264ETHO   H13 4094  11.114  18.747  13.507
  264ETHO    C2 4095  11.263  18.619  13.458
  264ETHO   H21 4096  11.292  18.523  13.409
  264ETHO   H23 4097  11.314  18.605  13.556
  265ETHO    O1 4098  11.329  18.723  13.381
  265ETHO    C1 4099  11.463  18.682  13.369
  265ETHO   H11 4100  11.500  18.683  13.473
  265ETHO   H13 4101  11.467  18.585  13.315
  265ETHO    C2 4102  11.531  18.792  13.292
  265ETHO   H21 4103  11.640  18.777  13.307
  265ETHO   H23 4104  11.499  18.896  13.317
  265ETHO    OZ 4105  11.506  18.770  13.156
  265ETHO   HZ1 4106  11.574  18.800  13.096
    1ETHO    O1 4107  15.584  19.720   8.855
    1ETHO   HO1 4108  15.607  19.745   8.945
    1ETHO    C1 4109  15.455  19.660   8.875
    1ETHO   H11 4110  15.383  19.735   8.915
    1ETHO   H13 4111  15.468  19.585   8.956
    1ETHO    C2 4112  15.383  19.605   8.747
    1ETHO   H21 4113  15.293  19.544   8.773
    1ETHO   H23 4114  15.458  19.545   8.692
    2ETHO    O1 4115  15.347  19.713   8.661
    2ETHO    C1 4116  15.294  19.659   8.541
    2ETHO   H11 4117  15.350  19.573   8.498
    2ETHO   H13 4118  15.201  19.609   8.577
    2ETHO    C2 4119  15.263  19.760   8.437
    2ETHO   H21 4120  15.215  19.714   8.349
    2ETHO   H23 4121  15.356  19.818   8.417
    3ETHO    O1 4122  15.163  19.856   8.469
    3ETHO    C1 4123  15.133  19.950   8.365
    3ETHO   H11 4124  15.098  19.899   8.273
    3ETHO   H13 4125  15.219  20.007   8.324
    3ETHO    C2 4126  15.020  20.048   8.412
    3ETHO   H21 4127  15.020  20.136   8.345
    3ETHO   H23 4128  15.045  20.069   8.519
    4ETHO    O1 4129  14.892  19.984   8.424
    4ETHO    C1 4130  14.790  20.083   8.414
    4ETHO   H11 4131  14.809  20.148   8.502
    4ETHO   H13 4132  14.800  20.133   8.316
    4ETHO    C2 4133  14.647  20.023   8.420
    4ETHO   H21 4134  14.579  20.098   8.466
    4ETHO   H23 4135  14.644  19.936   8.489
    5ETHO    O1 4136  14.601  19.998   8.289
    5ETHO    C1 4137  14.648  19.876   8.236
    5ETHO   H11 4138  14.758  19.869   8.249
    5ETHO   H13 4139  14.609  19.787   8.290
    5ETHO    C2 4140  14.602  19.858   8.092
    5ETHO   H21 4141  14.665  19.786   8.036
    5ETHO   H23 4142  14.602  19.956   8.041
    6ETHO    O1 4143  14.467  19.803   8.095
    6ETHO    C1 4144  14.409  19.759   7.967
    6ETHO   H11 4145  14.347  19.836   7.917
    6ETHO   H13 4146  14.495  19.739   7.900
    6ETHO    C2 4147  14.327  19.628   7.985
    6ETHO   H21 4148  14.389  19.558   8.045
    6ETHO   H23 4149  14.300  19.569   7.894
    7ETHO    O1 4150  14.209  19.652   8.054
    7ETHO    C1 4151  14.155  19.529   8.109
    7ETHO   H11 4152  14.136  19.471   8.016
    7ETHO   H13 4153  14.223  19.470   8.174
    7ETHO    C2 4154  14.027  19.543   8.190
    7ETHO   H21 4155  13.975  19.446   8.203
    7ETHO   H23 4156  13.951  19.597   8.130
    8ETHO    O1 4157  14.042  19.615   8.310
    8ETHO    C1 4158  13.924  19.640   8.384
    8ETHO   H11 4159  13.844  19.695   8.332
    8ETHO   H13 4160  13.963  19.699   8.470
    8ETHO    C2 4161  13.864  19.509   8.441
    8ETHO   H21 4162  13.804  19.528   8.533
    8ETHO   H23 4163  13.949  19.444   8.470
    9ETHO    O1 4164  13.782  19.445   8.343
    9ETHO    C1 4165  13.717  19.325   8.390
    9ETHO   H11 4166  13.794  19.255   8.429
    9ETHO   H13 4167  13.653  19.360   8.473
    9ETHO    C2 4168  13.632  19.246   8.283
    9ETHO   H21 4169  13.584  19.160   8.336
    9ETHO   H23 4170  13.696  19.211   8.199
   10ETHO    O1 4171  13.535  19.328   8.224
   10ETHO    C1 4172  13.442  19.258   8.151
   10ETHO   H11 4173  13.368  19.199   8.209
   10ETHO   H13 4174  13.484  19.193   8.071
   10ETHO    C2 4175  13.355  19.377   8.092
   10ETHO   H21 4176  13.271  19.329   8.038
   10ETHO   H23 4177  13.425  19.413   8.013
   11ETHO    O1 4178  13.306  19.482   8.178
   11ETHO    C1 4179  13.286  19.609   8.112
   11ETHO   H11 4180  13.224  19.674   8.177
   11ETHO   H13 4181  13.389  19.649   8.097
   11ETHO    C2 4182  13.210  19.602   7.981
   11ETHO   H21 4183  13.196  19.705   7.942
   11ETHO   H23 4184  13.260  19.538   7.904
   12ETHO    O1 4185  13.085  19.537   7.983
   12ETHO    C1 4186  13.015  19.563   7.865
   12ETHO   H11 4187  13.063  19.513   7.778
   12ETHO   H13 4188  12.994  19.670   7.843
   12ETHO    C2 4189  12.887  19.481   7.878
   12ETHO   H21 4190  12.813  19.536   7.817
   12ETHO   H23 4191  12.848  19.465   7.981
   13ETHO    O1 4192  12.903  19.349   7.821
   13ETHO    C1 4193  13.016  19.279   7.877
   13ETHO   H11 4194  13.111  19.312   7.831
   13ETHO   H13 4195  13.013  19.305   7.985
   13ETHO    C2 4196  13.000  19.127   7.852
   13ETHO   H21 4197  13.094  19.078   7.885
   13ETHO   H23 4198  13.005  19.120   7.741
   14ETHO    O1 4199  12.886  19.074   7.917
   14ETHO    C1 4200  12.897  18.936   7.905
   14ETHO   H11 4201  12.998  18.894   7.923
   14ETHO   H13 4202  12.881  18.925   7.796
   14ETHO    C2 4203  12.786  18.864   7.989
   14ETHO   H21 4204  12.775  18.759   7.952
   14ETHO   H23 4205  12.689  18.914   7.968
   15ETHO    O1 4206  12.814  18.851   8.120
   15ETHO    C1 4207  12.780  18.976   8.194
   15ETHO   H11 4208  12.836  19.060   8.149
   15ETHO   H13 4209  12.672  18.997   8.176
   15ETHO    C2 4210  12.798  18.961   8.342
   15ETHO   H21 4211  12.902  18.930   8.366
   15ETHO   H23 4212  12.786  19.058   8.396
   16ETHO    O1 4213  12.700  18.870   8.398
   16ETHO    C1 4214  12.748  18.818   8.526
   16ETHO   H11 4215  12.837  18.754   8.507
   16ETHO   H13 4216  12.760  18.900   8.599
   16ETHO    C2 4217  12.638  18.726   8.576
   16ETHO   H21 4218  12.541  18.781   8.570
   16ETHO   H23 4219  12.646  18.697   8.683
   17ETHO    O1 4220  12.631  18.603   8.503
   17ETHO    C1 4221  12.532  18.516   8.549
   17ETHO   H11 4222  12.571  18.412   8.542
   17ETHO   H13 4223  12.512  18.539   8.655
   17ETHO    C2 4224  12.404  18.520   8.465
   17ETHO   H21 4225  12.343  18.433   8.495
   17ETHO   H23 4226  12.432  18.526   8.358
   18ETHO    O1 4227  12.331  18.638   8.497
   18ETHO    C1 4228  12.224  18.657   8.403
   18ETHO   H11 4229  12.175  18.561   8.374
   18ETHO   H13 4230  12.145  18.700   8.469
   18ETHO    C2 4231  12.259  18.744   8.285
   18ETHO   H21 4232  12.199  18.726   8.194
   18ETHO   H23 4233  12.360  18.717   8.247
   19ETHO    O1 4234  12.240  18.884   8.309
   19ETHO    C1 4235  12.369  18.945   8.340
   19ETHO   H11 4236  12.448  18.926   8.265
   19ETHO   H13 4237  12.408  18.913   8.440
   19ETHO    C2 4238  12.348  19.100   8.351
   19ETHO   H21 4239  12.434  19.168   8.364
   19ETHO   H23 4240  12.269  19.138   8.420
   20ETHO    O1 4241  12.303  19.123   8.218
   20ETHO    C1 4242  12.312  19.262   8.182
   20ETHO   H11 4243  12.414  19.304   8.182
   20ETHO   H13 4244  12.280  19.268   8.076
   20ETHO    C2 4245  12.213  19.360   8.260
   20ETHO   H21 4246  12.118  19.304   8.277
   20ETHO   H23 4247  12.206  19.452   8.199
   21ETHO    O1 4248  12.266  19.402   8.390
   21ETHO    C1 4249  12.275  19.540   8.402
   21ETHO   H11 4250  12.178  19.587   8.377
   21ETHO   H13 4251  12.349  19.585   8.332
   21ETHO    C2 4252  12.302  19.581   8.546
   21ETHO   H21 4253  12.321  19.690   8.540
   21ETHO   H23 4254  12.382  19.513   8.581
   22ETHO    O1 4255  12.193  19.561   8.637
   22ETHO    C1 4256  12.229  19.606   8.772
   22ETHO   H11 4257  12.165  19.551   8.845
   22ETHO   H13 4258  12.336  19.584   8.792
   22ETHO    C2 4259  12.209  19.756   8.796
   22ETHO   H21 4260  12.122  19.793   8.737
   22ETHO   H23 4261  12.185  19.772   8.903
   23ETHO    O1 4262  12.324  19.832   8.768
   23ETHO    C1 4263  12.306  19.974   8.803
   23ETHO   H11 4264  12.199  20.001   8.817
   23ETHO   H13 4265  12.339  20.038   8.717
   23ETHO    C2 4266  12.367  20.004   8.944
   23ETHO   H21 4267  12.363  19.912   9.005
   23ETHO   H23 4268  12.316  20.091   8.991
   24ETHO    O1 4269  12.497  20.059   8.932
   24ETHO    C1 4270  12.563  20.068   9.055
   24ETHO   H11 4271  12.500  20.117   9.133
   24ETHO   H13 4272  12.581  19.966   9.095
   24ETHO    C2 4273  12.698  20.133   9.033
   24ETHO   H21 4274  12.750  20.104   8.939
   24ETHO   H23 4275  12.757  20.104   9.124
   25ETHO    O1 4276  12.681  20.278   9.031
   25ETHO    C1 4277  12.706  20.334   9.160
   25ETHO   H11 4278  12.811  20.306   9.185
   25ETHO   H13 4279  12.634  20.290   9.232
   25ETHO    C2 4280  12.701  20.485   9.186
   25ETHO   H21 4281  12.700  20.490   9.297
   25ETHO   H23 4282  12.606  20.522   9.141
   26ETHO    O1 4283  12.804  20.565   9.123
   26ETHO    C1 4284  12.785  20.699   9.153
   26ETHO   H11 4285  12.691  20.737   9.108
   26ETHO   H13 4286  12.770  20.720   9.261
   26ETHO    C2 4287  12.909  20.779   9.102
   26ETHO   H21 4288  12.896  20.889   9.104
   26ETHO   H23 4289  12.930  20.753   8.996
   27ETHO    O1 4290  13.020  20.750   9.189
   27ETHO    C1 4291  13.145  20.803   9.141
   27ETHO   H11 4292  13.159  20.913   9.146
   27ETHO   H13 4293  13.150  20.769   9.036
   27ETHO    C2 4294  13.263  20.755   9.235
   27ETHO   H21 4295  13.254  20.800   9.336
   27ETHO   H23 4296  13.361  20.786   9.193
   28ETHO    O1 4297  13.270  20.616   9.232
   28ETHO    C1 4298  13.376  20.565   9.310
   28ETHO   H11 4299  13.471  20.618   9.288
   28ETHO   H13 4300  13.354  20.577   9.418
   28ETHO    C2 4301  13.396  20.410   9.277
   28ETHO   H21 4302  13.488  20.377   9.329
   28ETHO   H23 4303  13.400  20.392   9.167
   29ETHO    O1 4304  13.288  20.332   9.325
   29ETHO    C1 4305  13.320  20.197   9.304
   29ETHO   H11 4306  13.429  20.175   9.298
   29ETHO   H13 4307  13.269  20.167   9.210
   29ETHO    C2 4308  13.267  20.109   9.421
   29ETHO   H21 4309  13.300  20.151   9.519
   29ETHO   H23 4310  13.328  20.016   9.414
   30ETHO    O1 4311  13.131  20.070   9.420
   30ETHO    C1 4312  13.055  20.133   9.525
   30ETHO   H11 4313  13.083  20.238   9.548
   30ETHO   H13 4314  12.947  20.124   9.501
   30ETHO    C2 4315  13.063  20.045   9.655
   30ETHO   H21 4316  13.043  19.938   9.636
   30ETHO   H23 4317  12.982  20.085   9.720
   31ETHO    O1 4318  13.195  20.054   9.718
   31ETHO    C1 4319  13.183  20.068   9.860
   31ETHO   H11 4320  13.134  20.166   9.871
   31ETHO   H13 4321  13.115  19.990   9.901
   31ETHO    C2 4322  13.323  20.072   9.931
   31ETHO   H21 4323  13.384  19.987   9.893
   31ETHO   H23 4324  13.300  20.057  10.038
   32ETHO    O1 4325  13.378  20.205   9.920
   32ETHO    C1 4326  13.450  20.236   9.806
   32ETHO   H11 4327  13.554  20.259   9.837
   32ETHO   H13 4328  13.469  20.148   9.741
   32ETHO    C2 4329  13.396  20.359   9.724
   32ETHO   H21 4330  13.285  20.360   9.714
   32ETHO   H23 4331  13.446  20.358   9.625
   33ETHO    O1 4332  13.443  20.480   9.782
   33ETHO    C1 4333  13.384  20.593   9.717
   33ETHO   H11 4334  13.430  20.683   9.763
   33ETHO   H13 4335  13.412  20.604   9.610
   33ETHO    C2 4336  13.230  20.623   9.722
   33ETHO   H21 4337  13.194  20.642   9.825
   33ETHO   H23 4338  13.187  20.528   9.683
   34ETHO    O1 4339  13.190  20.733   9.634
   34ETHO    C1 4340  13.055  20.780   9.648
   34ETHO   H11 4341  13.038  20.816   9.752
   34ETHO   H13 4342  12.989  20.694   9.624
   34ETHO    C2 4343  13.008  20.879   9.534
   34ETHO   H21 4344  12.898  20.883   9.546
   34ETHO   H23 4345  13.036  20.850   9.431
   35ETHO    O1 4346  13.072  21.003   9.563
   35ETHO    C1 4347  13.026  21.114   9.491
   35ETHO   H11 4348  13.021  21.086   9.384
   35ETHO   H13 4349  12.919  21.123   9.520
   35ETHO    C2 4350  13.093  21.244   9.529
   35ETHO   H21 4351  13.078  21.263   9.637
   35ETHO   H23 4352  13.042  21.325   9.474
   36ETHO    O1 4353  13.235  21.243   9.496
   36ETHO    C1 4354  13.314  21.307   9.592
   36ETHO   H11 4355  13.304  21.235   9.676
   36ETHO   H13 4356  13.284  21.408   9.627
   36ETHO    C2 4357  13.463  21.308   9.544
   36ETHO   H21 4358  13.492  21.202   9.532
   36ETHO   H23 4359  13.532  21.354   9.618
   37ETHO    O1 4360  13.481  21.364   9.416
   37ETHO    C1 4361  13.617  21.356   9.382
   37ETHO   H11 4362  13.644  21.441   9.315
   37ETHO   H13 4363  13.678  21.381   9.472
   37ETHO    C2 4364  13.662  21.238   9.305
   37ETHO   H21 4365  13.649  21.149   9.371
   37ETHO   H23 4366  13.768  21.255   9.275
   38ETHO    O1 4367  13.577  21.232   9.190
   38ETHO    C1 4368  13.596  21.105   9.117
   38ETHO   H11 4369  13.604  21.024   9.192
   38ETHO   H13 4370  13.689  21.101   9.056
   38ETHO    C2 4371  13.483  21.076   9.024
   38ETHO   H21 4372  13.388  21.044   9.072
   38ETHO   H23 4373  13.509  20.988   8.961
   39ETHO    O1 4374  13.462  21.179   8.934
   39ETHO    C1 4375  13.368  21.145   8.834
   39ETHO   H11 4376  13.397  21.068   8.759
   39ETHO   H13 4377  13.283  21.109   8.895
   39ETHO    C2 4378  13.310  21.267   8.759
   39ETHO   H21 4379  13.253  21.236   8.669
   39ETHO   H23 4380  13.400  21.324   8.727
   40ETHO    O1 4381  13.230  21.338   8.851
   40ETHO    C1 4382  13.154  21.432   8.784
   40ETHO   H11 4383  13.103  21.387   8.696
   40ETHO   H13 4384  13.226  21.507   8.746
   40ETHO    C2 4385  13.050  21.517   8.867
   40ETHO   H21 4386  13.016  21.602   8.804
   40ETHO   H23 4387  13.100  21.565   8.953
   41ETHO    O1 4388  12.935  21.441   8.901
   41ETHO    C1 4389  12.826  21.513   8.961
   41ETHO   H11 4390  12.868  21.562   9.052
   41ETHO   H13 4391  12.799  21.601   8.900
   41ETHO    C2 4392  12.695  21.439   8.999
   41ETHO   H21 4393  12.628  21.516   9.043
   41ETHO   H23 4394  12.718  21.361   9.074
   42ETHO    O1 4395  12.637  21.383   8.884
   42ETHO    C1 4396  12.514  21.327   8.923
   42ETHO   H11 4397  12.527  21.260   9.010
   42ETHO   H13 4398  12.451  21.411   8.960
   42ETHO    C2 4399  12.455  21.240   8.813
   42ETHO   H21 4400  12.364  21.185   8.847
   42ETHO   H23 4401  12.527  21.159   8.791
   43ETHO    O1 4402  12.432  21.323   8.697
   43ETHO    C1 4403  12.292  21.340   8.674
   43ETHO   H11 4404  12.266  21.383   8.774
   43ETHO   H13 4405  12.280  21.417   8.595
   43ETHO    C2 4406  12.230  21.208   8.628
   43ETHO   H21 4407  12.203  21.143   8.715
   43ETHO   H23 4408  12.299  21.155   8.558
   44ETHO    O1 4409  12.111  21.241   8.555
   44ETHO    C1 4410  12.068  21.153   8.452
   44ETHO   H11 4411  11.987  21.211   8.402
   44ETHO   H13 4412  12.149  21.135   8.378
   44ETHO    C2 4413  12.016  21.020   8.508
   44ETHO   H21 4414  12.088  20.969   8.576
   44ETHO   H23 4415  11.991  20.961   8.418
   45ETHO    O1 4416  11.896  21.042   8.575
   45ETHO    C1 4417  11.896  20.986   8.710
   45ETHO   H11 4418  11.795  21.022   8.740
   45ETHO   H13 4419  11.975  21.037   8.770
   45ETHO    C2 4420  11.904  20.831   8.733
   45ETHO   H21 4421  11.831  20.784   8.664
   45ETHO   H23 4422  11.880  20.819   8.841
   46ETHO    O1 4423  12.029  20.768   8.688
   46ETHO    C1 4424  12.131  20.775   8.780
   46ETHO   H11 4425  12.164  20.881   8.777
   46ETHO   H13 4426  12.090  20.747   8.880
   46ETHO    C2 4427  12.234  20.676   8.734
   46ETHO   H21 4428  12.195  20.572   8.727
   46ETHO   H23 4429  12.314  20.673   8.811
   47ETHO    O1 4430  12.290  20.718   8.614
   47ETHO    C1 4431  12.370  20.622   8.548
   47ETHO   H11 4432  12.403  20.666   8.451
   47ETHO   H13 4433  12.304  20.534   8.529
   47ETHO    C2 4434  12.492  20.575   8.625
   47ETHO   H21 4435  12.533  20.489   8.567
   47ETHO   H23 4436  12.457  20.525   8.719
   48ETHO    O1 4437  12.589  20.669   8.645
   48ETHO    C1 4438  12.704  20.615   8.707
   48ETHO   H11 4439  12.679  20.588   8.812
   48ETHO   H13 4440  12.731  20.518   8.660
   48ETHO    C2 4441  12.836  20.693   8.699
   48ETHO   H21 4442  12.912  20.646   8.765
   48ETHO   H23 4443  12.877  20.685   8.596
   49ETHO    O1 4444  12.813  20.832   8.742
   49ETHO    C1 4445  12.927  20.917   8.727
   49ETHO   H11 4446  13.005  20.877   8.659
   49ETHO   H13 4447  12.974  20.929   8.827
   49ETHO    C2 4448  12.881  21.054   8.658
   49ETHO   H21 4449  12.958  21.127   8.692
   49ETHO   H23 4450  12.787  21.086   8.709
   50ETHO    O1 4451  12.875  21.037   8.515
   50ETHO    C1 4452  12.831  21.161   8.454
   50ETHO   H11 4453  12.868  21.243   8.519
   50ETHO   H13 4454  12.876  21.173   8.354
   50ETHO    C2 4455  12.680  21.168   8.446
   50ETHO   H21 4456  12.648  21.267   8.406
   50ETHO   H23 4457  12.643  21.144   8.548
   51ETHO    O1 4458  12.633  21.078   8.349
   51ETHO    C1 4459  12.626  21.126   8.211
   51ETHO   H11 4460  12.730  21.140   8.174
   51ETHO   H13 4461  12.581  21.227   8.218
   51ETHO    C2 4462  12.558  21.026   8.113
   51ETHO   H21 4463  12.548  21.062   8.008
   51ETHO   H23 4464  12.466  20.995   8.165
   52ETHO    O1 4465  12.637  20.913   8.124
   52ETHO    C1 4466  12.631  20.824   8.018
   52ETHO   H11 4467  12.672  20.725   8.047
   52ETHO   H13 4468  12.522  20.807   8.002
   52ETHO    C2 4469  12.716  20.868   7.900
   52ETHO   H21 4470  12.740  20.778   7.840
   52ETHO   H23 4471  12.817  20.901   7.932
   53ETHO    O1 4472  12.654  20.970   7.819
   53ETHO    C1 4473  12.725  21.092   7.837
   53ETHO   H11 4474  12.729  21.119   7.945
   53ETHO   H13 4475  12.830  21.087   7.802
   53ETHO    C2 4476  12.645  21.197   7.752
   53ETHO   H21 4477  12.665  21.302   7.782
   53ETHO   H23 4478  12.538  21.185   7.777
   54ETHO    O1 4479  12.659  21.187   7.612
   54ETHO    C1 4480  12.784  21.241   7.569
   54ETHO   H11 4481  12.764  21.345   7.601
   54ETHO   H13 4482  12.875  21.194   7.611
   54ETHO    C2 4483  12.804  21.256   7.418
   54ETHO   H21 4484  12.888  21.325   7.396
   54ETHO   H23 4485  12.712  21.305   7.379
   55ETHO    O1 4486  12.835  21.137   7.349
   55ETHO    C1 4487  12.963  21.083   7.395
   55ETHO   H11 4488  13.041  21.161   7.408
   55ETHO   H13 4489  12.939  21.026   7.488
   55ETHO    C2 4490  12.999  20.968   7.293
   55ETHO   H21 4491  13.076  20.894   7.322
   55ETHO   H23 4492  12.911  20.901   7.286
   56ETHO    O1 4493  13.042  21.025   7.170
   56ETHO    C1 4494  13.162  21.095   7.164
   56ETHO   H11 4495  13.165  21.168   7.247
   56ETHO   H13 4496  13.152  21.132   7.059
   56ETHO    C2 4497  13.291  21.007   7.171
   56ETHO   H21 4498  13.377  21.061   7.127
   56ETHO   H23 4499  13.267  20.916   7.112
   57ETHO    O1 4500  13.313  20.975   7.312
   57ETHO    C1 4501  13.422  20.891   7.346
   57ETHO   H11 4502  13.507  20.932   7.287
   57ETHO   H13 4503  13.440  20.903   7.456
   57ETHO    C2 4504  13.404  20.745   7.307
   57ETHO   H21 4505  13.501  20.712   7.263
   57ETHO   H23 4506  13.334  20.732   7.221
   58ETHO    O1 4507  13.369  20.652   7.410
   58ETHO    C1 4508  13.482  20.643   7.508
   58ETHO   H11 4509  13.499  20.741   7.557
   58ETHO   H13 4510  13.579  20.604   7.470
   58ETHO    C2 4511  13.444  20.554   7.629
   58ETHO   H21 4512  13.534  20.506   7.674
   58ETHO   H23 4513  13.373  20.473   7.601
   59ETHO    O1 4514  13.385  20.634   7.721
   59ETHO    C1 4515  13.352  20.565   7.837
   59ETHO   H11 4516  13.273  20.490   7.815
   59ETHO   H13 4517  13.441  20.509   7.872
   59ETHO    C2 4518  13.298  20.657   7.949
   59ETHO   H21 4519  13.265  20.596   8.036
   59ETHO   H23 4520  13.206  20.703   7.906
   60ETHO    O1 4521  13.387  20.757   7.997
   60ETHO    C1 4522  13.322  20.848   8.085
   60ETHO   H11 4523  13.267  20.793   8.164
   60ETHO   H13 4524  13.238  20.895   8.029
   60ETHO    C2 4525  13.418  20.961   8.132
   60ETHO   H21 4526  13.510  20.917   8.174
   60ETHO   H23 4527  13.362  21.022   8.206
   61ETHO    O1 4528  13.445  21.049   8.019
   61ETHO    C1 4529  13.533  21.159   8.055
   61ETHO   H11 4530  13.510  21.195   8.157
   61ETHO   H13 4531  13.640  21.130   8.061
   61ETHO    C2 4532  13.523  21.275   7.957
   61ETHO   H21 4533  13.561  21.369   8.004
   61ETHO   H23 4534  13.417  21.289   7.927
   62ETHO    O1 4535  13.572  21.250   7.826
   62ETHO    C1 4536  13.581  21.378   7.761
   62ETHO   H11 4537  13.661  21.432   7.816
   62ETHO   H13 4538  13.485  21.433   7.774
   62ETHO    C2 4539  13.603  21.375   7.613
   62ETHO   H21 4540  13.685  21.302   7.590
   62ETHO   H23 4541  13.630  21.474   7.571
   63ETHO    O1 4542  13.484  21.354   7.530
   63ETHO    C1 4543  13.506  21.352   7.392
   63ETHO   H11 4544  13.538  21.451   7.353
   63ETHO   H13 4545  13.593  21.286   7.368
   63ETHO    C2 4546  13.386  21.313   7.308
   63ETHO   H21 4547  13.344  21.218   7.348
   63ETHO   H23 4548  13.431  21.283   7.211
   64ETHO    O1 4549  13.285  21.410   7.294
   64ETHO    C1 4550  13.329  21.512   7.211
   64ETHO   H11 4551  13.383  21.475   7.121
   64ETHO   H13 4552  13.396  21.575   7.273
   64ETHO    C2 4553  13.200  21.593   7.172
   64ETHO   H21 4554  13.123  21.513   7.162
   64ETHO   H23 4555  13.214  21.664   7.087
   65ETHO    O1 4556  13.170  21.668   7.290
   65ETHO    C1 4557  13.058  21.764   7.266
   65ETHO   H11 4558  13.098  21.855   7.216
   65ETHO   H13 4559  12.988  21.711   7.199
   65ETHO    C2 4560  12.997  21.818   7.388
   65ETHO   H21 4561  12.943  21.908   7.353
   65ETHO   H23 4562  13.075  21.848   7.462
   66ETHO    O1 4563  12.912  21.721   7.444
   66ETHO    C1 4564  12.830  21.769   7.553
   66ETHO   H11 4565  12.777  21.861   7.519
   66ETHO   H13 4566  12.897  21.793   7.638
   66ETHO    C2 4567  12.731  21.657   7.577
   66ETHO   H21 4568  12.668  21.674   7.667
   66ETHO   H23 4569  12.784  21.562   7.595
   67ETHO    O1 4570  12.647  21.647   7.460
   67ETHO    C1 4571  12.544  21.545   7.488
   67ETHO   H11 4572  12.584  21.445   7.515
   67ETHO   H13 4573  12.492  21.569   7.584
   67ETHO    C2 4574  12.448  21.529   7.375
   67ETHO   H21 4575  12.381  21.617   7.368
   67ETHO   H23 4576  12.392  21.435   7.391
   68ETHO    O1 4577  12.512  21.516   7.249
   68ETHO    C1 4578  12.418  21.515   7.143
   68ETHO   H11 4579  12.377  21.413   7.126
   68ETHO   H13 4580  12.330  21.577   7.172
   68ETHO    C2 4581  12.482  21.574   7.017
   68ETHO   H21 4582  12.423  21.542   6.928
   68ETHO   H23 4583  12.585  21.533   7.006
   69ETHO    O1 4584  12.474  21.717   7.025
   69ETHO    C1 4585  12.575  21.771   6.948
   69ETHO   H11 4586  12.662  21.765   7.016
   69ETHO   H13 4587  12.591  21.709   6.858
   69ETHO    C2 4588  12.572  21.918   6.924
   69ETHO   H21 4589  12.488  21.930   6.852
   69ETHO   H23 4590  12.656  21.954   6.861
   70ETHO    O1 4591  12.549  22.005   7.038
   70ETHO    C1 4592  12.512  22.132   6.989
   70ETHO   H11 4593  12.466  22.132   6.888
   70ETHO   H13 4594  12.426  22.162   7.051
   70ETHO    C2 4595  12.635  22.231   6.986
   70ETHO   H21 4596  12.704  22.200   6.905
   70ETHO   H23 4597  12.680  22.225   7.088
   71ETHO    O1 4598  12.589  22.364   6.967
   71ETHO    C1 4599  12.518  22.390   6.839
   71ETHO   H11 4600  12.409  22.383   6.858
   71ETHO   H13 4601  12.537  22.311   6.763
   71ETHO    C2 4602  12.566  22.519   6.767
   71ETHO   H21 4603  12.562  22.605   6.837
   71ETHO   H23 4604  12.488  22.547   6.693
   72ETHO    O1 4605  12.689  22.514   6.695
   72ETHO    C1 4606  12.799  22.530   6.779
   72ETHO   H11 4607  12.767  22.538   6.885
   72ETHO   H13 4608  12.863  22.440   6.767
   72ETHO    C2 4609  12.884  22.652   6.747
   72ETHO   H21 4610  12.929  22.646   6.646
   72ETHO   H23 4611  12.969  22.662   6.818
   73ETHO    O1 4612  12.814  22.773   6.762
   73ETHO    C1 4613  12.899  22.875   6.715
   73ETHO   H11 4614  12.876  22.885   6.607
   73ETHO   H13 4615  13.008  22.855   6.726
   73ETHO    C2 4616  12.861  23.009   6.782
   73ETHO   H21 4617  12.759  23.043   6.754
   73ETHO   H23 4618  12.929  23.078   6.728
   74ETHO    O1 4619  12.900  23.027   6.919
   74ETHO    C1 4620  12.830  22.943   7.008
   74ETHO   H11 4621  12.725  22.933   6.973
   74ETHO   H13 4622  12.891  22.850   7.013
   74ETHO    C2 4623  12.825  23.004   7.149
   74ETHO   H21 4624  12.743  22.951   7.202
   74ETHO   H23 4625  12.812  23.113   7.130
   75ETHO    O1 4626  12.942  22.981   7.215
   75ETHO    C1 4627  12.936  23.049   7.338
   75ETHO   H11 4628  12.860  23.013   7.411
   75ETHO   H13 4629  12.951  23.158   7.321
   75ETHO    C2 4630  13.069  23.004   7.409
   75ETHO   H21 4631  13.090  23.078   7.490
   75ETHO   H23 4632  13.151  23.017   7.336
   76ETHO    O1 4633  13.050  22.866   7.446
   76ETHO    C1 4634  13.163  22.815   7.521
   76ETHO   H11 4635  13.261  22.847   7.481
   76ETHO   H13 4636  13.150  22.857   7.623
   76ETHO    C2 4637  13.150  22.669   7.555
   76ETHO   H21 4638  13.047  22.637   7.581
   76ETHO   H23 4639  13.212  22.656   7.646
   77ETHO    O1 4640  13.196  22.591   7.443
   77ETHO    C1 4641  13.201  22.450   7.467
   77ETHO   H11 4642  13.104  22.418   7.510
   77ETHO   H13 4643  13.285  22.419   7.532
   77ETHO    C2 4644  13.234  22.396   7.328
   77ETHO   H21 4645  13.337  22.433   7.303
   77ETHO   H23 4646  13.171  22.427   7.242
   78ETHO    O1 4647  13.248  22.258   7.346
   78ETHO    C1 4648  13.310  22.194   7.235
   78ETHO   H11 4649  13.233  22.190   7.155
   78ETHO   H13 4650  13.402  22.247   7.203
   78ETHO    C2 4651  13.354  22.046   7.269
   78ETHO   H21 4652  13.381  21.997   7.174
   78ETHO   H23 4653  13.269  21.988   7.310
   79ETHO    O1 4654  13.458  22.019   7.372
   79ETHO    C1 4655  13.518  21.889   7.357
   79ETHO   H11 4656  13.442  21.819   7.317
   79ETHO   H13 4657  13.591  21.895   7.273
   79ETHO    C2 4658  13.574  21.831   7.490
   79ETHO   H21 4659  13.664  21.888   7.518
   79ETHO   H23 4660  13.598  21.727   7.458
   80ETHO    O1 4661  13.482  21.839   7.597
   80ETHO    C1 4662  13.422  21.713   7.634
   80ETHO   H11 4663  13.402  21.651   7.544
   80ETHO   H13 4664  13.497  21.649   7.685
   80ETHO    C2 4665  13.290  21.731   7.710
   80ETHO   H21 4666  13.239  21.633   7.726
   80ETHO   H23 4667  13.228  21.805   7.655
   81ETHO    O1 4668  13.316  21.797   7.837
   81ETHO    C1 4669  13.201  21.814   7.918
   81ETHO   H11 4670  13.138  21.889   7.865
   81ETHO   H13 4671  13.135  21.725   7.920
   81ETHO    C2 4672  13.212  21.854   8.067
   81ETHO   H21 4673  13.261  21.953   8.074
   81ETHO   H23 4674  13.118  21.863   8.125
   82ETHO    O1 4675  13.282  21.749   8.133
   82ETHO    C1 4676  13.282  21.757   8.281
   82ETHO   H11 4677  13.174  21.762   8.308
   82ETHO   H13 4678  13.326  21.855   8.309
   82ETHO    C2 4679  13.356  21.635   8.336
   82ETHO   H21 4680  13.362  21.657   8.445
   82ETHO   H23 4681  13.459  21.641   8.294
   83ETHO    O1 4682  13.277  21.518   8.309
   83ETHO    C1 4683  13.327  21.406   8.381
   83ETHO   H11 4684  13.424  21.385   8.332
   83ETHO   H13 4685  13.353  21.436   8.484
   83ETHO    C2 4686  13.234  21.289   8.379
   83ETHO   H21 4687  13.204  21.267   8.274
   83ETHO   H23 4688  13.143  21.310   8.439
   84ETHO    O1 4689  13.304  21.180   8.443
   84ETHO    C1 4690  13.224  21.061   8.457
   84ETHO   H11 4691  13.178  21.040   8.358
   84ETHO   H13 4692  13.143  21.069   8.532
   84ETHO    C2 4693  13.312  20.940   8.488
   84ETHO   H21 4694  13.420  20.962   8.496
   84ETHO   H23 4695  13.300  20.874   8.399
   85ETHO    O1 4696  13.275  20.864   8.601
   85ETHO    C1 4697  13.314  20.727   8.596
   85ETHO   H11 4698  13.234  20.680   8.534
   85ETHO   H13 4699  13.416  20.702   8.559
   85ETHO    C2 4700  13.304  20.657   8.742
   85ETHO   H21 4701  13.281  20.734   8.819
   85ETHO   H23 4702  13.404  20.611   8.759
   86ETHO    O1 4703  13.205  20.559   8.759
   86ETHO    C1 4704  13.231  20.492   8.884
   86ETHO   H11 4705  13.245  20.568   8.964
   86ETHO   H13 4706  13.319  20.424   8.883
   86ETHO    C2 4707  13.112  20.407   8.939
   86ETHO   H21 4708  13.013  20.458   8.939
   86ETHO   H23 4709  13.148  20.363   9.034
   87ETHO    O1 4710  13.085  20.292   8.856
   87ETHO    C1 4711  13.153  20.172   8.904
   87ETHO   H11 4712  13.263  20.189   8.902
   87ETHO   H13 4713  13.116  20.170   9.009
   87ETHO    C2 4714  13.120  20.041   8.824
   87ETHO   H21 4715  13.190  19.967   8.867
   87ETHO   H23 4716  13.126  20.056   8.714
   88ETHO    O1 4717  12.989  19.989   8.843
   88ETHO    C1 4718  12.971  19.900   8.955
   88ETHO   H11 4719  12.960  19.969   9.041
   88ETHO   H13 4720  13.057  19.831   8.967
   88ETHO    C2 4721  12.849  19.812   8.948
   88ETHO   H21 4722  12.760  19.871   8.918
   88ETHO   H23 4723  12.832  19.766   9.048
   89ETHO    O1 4724  12.881  19.710   8.849
   89ETHO    C1 4725  12.769  19.681   8.771
   89ETHO   H11 4726  12.670  19.700   8.818
   89ETHO   H13 4727  12.771  19.762   8.695
   89ETHO    C2 4728  12.768  19.545   8.702
   89ETHO   H21 4729  12.847  19.543   8.624
   89ETHO   H23 4730  12.672  19.514   8.654
   90ETHO    O1 4731  12.787  19.439   8.789
   90ETHO    C1 4732  12.769  19.312   8.719
   90ETHO   H11 4733  12.666  19.310   8.678
   90ETHO   H13 4734  12.838  19.322   8.632
   90ETHO    C2 4735  12.807  19.189   8.802
   90ETHO   H21 4736  12.897  19.207   8.865
   90ETHO   H23 4737  12.823  19.107   8.729
   91ETHO    O1 4738  12.693  19.155   8.886
   91ETHO    C1 4739  12.734  19.082   9.004
   91ETHO   H11 4740  12.800  18.995   8.981
   91ETHO   H13 4741  12.788  19.159   9.064
   91ETHO    C2 4742  12.617  19.014   9.080
   91ETHO   H21 4743  12.533  19.083   9.100
   91ETHO   H23 4744  12.643  18.981   9.183
   92ETHO    O1 4745  12.581  18.898   9.003
   92ETHO    C1 4746  12.483  18.820   9.079
   92ETHO   H11 4747  12.414  18.887   9.137
   92ETHO   H13 4748  12.427  18.759   9.005
   92ETHO    C2 4749  12.535  18.708   9.175
   92ETHO   H21 4750  12.446  18.664   9.225
   92ETHO   H23 4751  12.601  18.746   9.256
   93ETHO    O1 4752  12.601  18.592   9.122
   93ETHO    C1 4753  12.585  18.472   9.201
   93ETHO   H11 4754  12.480  18.437   9.197
   93ETHO   H13 4755  12.622  18.497   9.303
   93ETHO    C2 4756  12.672  18.350   9.149
   93ETHO   H21 4757  12.717  18.312   9.244
   93ETHO   H23 4758  12.754  18.386   9.083
   94ETHO    O1 4759  12.593  18.250   9.090
   94ETHO    C1 4760  12.679  18.162   9.008
   94ETHO   H11 4761  12.614  18.126   8.925
   94ETHO   H13 4762  12.761  18.228   8.970
   94ETHO    C2 4763  12.737  18.040   9.076
   94ETHO   H21 4764  12.779  18.062   9.177
   94ETHO   H23 4765  12.825  18.008   9.017
   95ETHO    O1 4766  12.649  17.922   9.073
   95ETHO    C1 4767  12.614  17.879   9.206
   95ETHO   H11 4768  12.509  17.843   9.209
   95ETHO   H13 4769  12.599  17.965   9.274
   95ETHO    C2 4770  12.722  17.772   9.257
   95ETHO   H21 4771  12.691  17.737   9.357
   95ETHO   H23 4772  12.818  17.827   9.264
   96ETHO    O1 4773  12.720  17.671   9.157
   96ETHO    C1 4774  12.761  17.546   9.215
   96ETHO   H11 4775  12.859  17.564   9.263
   96ETHO   H13 4776  12.688  17.518   9.294
   96ETHO    C2 4777  12.760  17.433   9.118
   96ETHO   H21 4778  12.865  17.418   9.085
   96ETHO   H23 4779  12.700  17.444   9.025
   97ETHO    O1 4780  12.709  17.309   9.172
   97ETHO    C1 4781  12.741  17.203   9.077
   97ETHO   H11 4782  12.850  17.181   9.071
   97ETHO   H13 4783  12.709  17.226   8.973
   97ETHO    C2 4784  12.674  17.068   9.128
   97ETHO   H21 4785  12.712  17.041   9.229
   97ETHO   H23 4786  12.711  16.989   9.060
   98ETHO    O1 4787  12.536  17.068   9.130
   98ETHO    C1 4788  12.494  16.948   9.190
   98ETHO   H11 4789  12.429  16.893   9.119
   98ETHO   H13 4790  12.578  16.880   9.214
   98ETHO    C2 4791  12.414  16.957   9.322
   98ETHO   H21 4792  12.361  16.860   9.328
   98ETHO   H23 4793  12.341  17.040   9.313
   99ETHO    O1 4794  12.486  16.978   9.447
   99ETHO    C1 4795  12.395  16.982   9.550
   99ETHO   H11 4796  12.328  16.893   9.555
   99ETHO   H13 4797  12.321  17.061   9.526
   99ETHO    C2 4798  12.466  17.030   9.682
   99ETHO   H21 4799  12.383  17.080   9.735
   99ETHO   H23 4800  12.539  17.107   9.649
  100ETHO    O1 4801  12.522  16.914   9.742
  100ETHO    C1 4802  12.643  16.938   9.823
  100ETHO   H11 4803  12.708  17.015   9.776
  100ETHO   H13 4804  12.616  16.975   9.925
  100ETHO    C2 4805  12.734  16.809   9.838
  100ETHO   H21 4806  12.823  16.858   9.884
  100ETHO   H23 4807  12.761  16.749   9.749
  101PROX    O1 4808  12.683  16.720   9.944
  101PROX    C1 4809  12.773  16.617   9.988
  101PROX   H11 4810  12.808  16.564   9.897
  101PROX   H13 4811  12.860  16.648  10.049
  101PROX    C2 4812  12.684  16.514  10.076
  101PROX   H21 4813  12.743  16.420  10.074
  101PROX    C3 4814  12.549  16.475  10.009
  101PROX   H31 4815  12.555  16.440   9.904
  101PROX   H32 4816  12.505  16.393  10.070
  101PROX   H33 4817  12.485  16.565  10.023
  102PROX    O1 4818  12.669  16.556  10.209
  102PROX    C1 4819  12.773  16.506  10.291
  102PROX   H11 4820  12.862  16.494  10.225
  102PROX   H13 4821  12.807  16.576  10.370
  102PROX    C2 4822  12.734  16.377  10.366
  102PROX   H21 4823  12.666  16.321  10.298
  102PROX    C3 4824  12.670  16.394  10.508
  102PROX   H31 4825  12.754  16.408  10.579
  102PROX   H32 4826  12.585  16.466  10.512
  102PROX   H33 4827  12.633  16.292  10.531
  103PROX    O1 4828  12.853  16.305  10.368
  103PROX    C1 4829  12.836  16.168  10.376
  103PROX   H11 4830  12.873  16.138  10.477
  103PROX   H13 4831  12.730  16.143  10.354
  103PROX    C2 4832  12.916  16.105  10.261
  103PROX   H21 4833  13.022  16.136  10.267
  103PROX    C3 4834  12.869  16.146  10.122
  103PROX   H31 4835  12.915  16.082  10.044
  103PROX   H32 4836  12.762  16.124  10.106
  103PROX   H33 4837  12.892  16.254  10.110
  104PROX    O1 4838  12.898  15.964  10.263
  104PROX    C1 4839  12.997  15.899  10.351
  104PROX   H11 4840  13.088  15.872  10.293
  104PROX   H13 4841  13.026  15.979  10.423
  104PROX    C2 4842  12.949  15.777  10.428
  104PROX   H21 4843  12.947  15.691  10.357
  104PROX    C3 4844  12.803  15.810  10.471
  104PROX   H31 4845  12.786  15.911  10.516
  104PROX   H32 4846  12.741  15.805  10.379
  104PROX   H33 4847  12.769  15.741  10.551
  105PROX    O1 4848  13.036  15.756  10.536
  105PROX    C1 4849  13.005  15.656  10.631
  105PROX   H11 4850  12.913  15.689  10.685
  105PROX   H13 4851  12.977  15.561  10.581
  105PROX    C2 4852  13.128  15.631  10.719
  105PROX   H21 4853  13.222  15.619  10.661
  105PROX    C3 4854  13.132  15.497  10.801
  105PROX   H31 4855  13.214  15.495  10.875
  105PROX   H32 4856  13.035  15.500  10.856
  105PROX   H33 4857  13.142  15.408  10.735
  106PROX    O1 4858  13.145  15.736  10.813
  106PROX    C1 4859  13.251  15.829  10.764
  106PROX   H11 4860  13.355  15.819  10.802
  106PROX   H13 4861  13.250  15.827  10.653
  106PROX    C2 4862  13.208  15.980  10.802
  106PROX   H21 4863  13.105  16.001  10.765
  106PROX    C3 4864  13.310  16.084  10.759
  106PROX   H31 4865  13.312  16.110  10.651
  106PROX   H32 4866  13.283  16.176  10.815
  106PROX   H33 4867  13.412  16.056  10.792
  107PROX    O1 4868  13.205  15.983  10.947
  107PROX    C1 4869  13.128  16.085  11.008
  107PROX   H11 4870  13.159  16.183  10.966
  107PROX   H13 4871  13.023  16.065  10.978
  107PROX    C2 4872  13.146  16.080  11.160
  107PROX   H21 4873  13.201  15.993  11.200
  107PROX    C3 4874  13.003  16.072  11.218
  107PROX   H31 4875  12.969  15.970  11.191
  107PROX   H32 4876  13.013  16.077  11.329
  107PROX   H33 4877  12.931  16.152  11.191
  108PROX    O1 4878  13.213  16.204  11.212
  108PROX    C1 4879  13.357  16.203  11.201
  108PROX   H11 4880  13.397  16.099  11.210
  108PROX   H13 4881  13.384  16.239  11.100
  108PROX    C2 4882  13.437  16.291  11.304
  108PROX   H21 4883  13.409  16.269  11.409
  108PROX    C3 4884  13.416  16.442  11.286
  108PROX   H31 4885  13.446  16.473  11.183
  108PROX   H32 4886  13.308  16.469  11.293
  108PROX   H33 4887  13.475  16.505  11.355
  109PROX    O1 4888  13.576  16.261  11.290
  109PROX    C1 4889  13.647  16.265  11.414
  109PROX   H11 4890  13.642  16.368  11.455
  109PROX   H13 4891  13.603  16.190  11.482
  109PROX    C2 4892  13.795  16.222  11.394
  109PROX   H21 4893  13.789  16.134  11.327
  109PROX    C3 4894  13.871  16.165  11.514
  109PROX   H31 4895  13.952  16.093  11.492
  109PROX   H32 4896  13.906  16.244  11.584
  109PROX   H33 4897  13.794  16.111  11.573
  110PROX    O1 4898  13.866  16.330  11.333
  110PROX    C1 4899  13.991  16.292  11.269
  110PROX   H11 4900  14.044  16.389  11.260
  110PROX   H13 4901  14.054  16.231  11.338
  110PROX    C2 4902  13.976  16.213  11.135
  110PROX   H21 4903  13.920  16.117  11.144
  110PROX    C3 4904  14.111  16.182  11.057
  110PROX   H31 4905  14.092  16.145  10.954
  110PROX   H32 4906  14.175  16.271  11.043
  110PROX   H33 4907  14.168  16.102  11.109
  111PROX    O1 4908  13.923  16.305  11.033
  111PROX    C1 4909  13.780  16.315  11.034
  111PROX   H11 4910  13.733  16.218  11.059
  111PROX   H13 4911  13.746  16.390  11.109
  111PROX    C2 4912  13.721  16.354  10.894
  111PROX   H21 4913  13.758  16.455  10.868
  111PROX    C3 4914  13.569  16.370  10.900
  111PROX   H31 4915  13.520  16.273  10.876
  111PROX   H32 4916  13.537  16.399  11.003
  111PROX   H33 4917  13.531  16.446  10.829
  112PROX    O1 4918  13.759  16.272  10.787
  112PROX    C1 4919  13.873  16.318  10.711
  112PROX   H11 4920  13.842  16.404  10.649
  112PROX   H13 4921  13.964  16.340  10.772
  112PROX    C2 4922  13.908  16.197  10.615
  112PROX   H21 4923  13.886  16.105  10.674
  112PROX    C3 4924  14.056  16.189  10.578
  112PROX   H31 4925  14.082  16.091  10.532
  112PROX   H32 4926  14.073  16.265  10.498
  112PROX   H33 4927  14.121  16.201  10.667
  113PROX    O1 4928  13.834  16.210  10.494
  113PROX    C1 4929  13.734  16.109  10.472
  113PROX   H11 4930  13.666  16.109  10.560
  113PROX   H13 4931  13.678  16.147  10.384
  113PROX    C2 4932  13.797  15.971  10.425
  113PROX   H21 4933  13.883  15.948  10.492
  113PROX    C3 4934  13.856  15.980  10.288
  113PROX   H31 4935  13.777  16.004  10.214
  113PROX   H32 4936  13.934  16.059  10.287
  113PROX   H33 4937  13.902  15.882  10.260
  114PROX    O1 4938  13.703  15.872  10.438
  114PROX    C1 4939  13.660  15.858  10.574
  114PROX   H11 4940  13.741  15.878  10.648
  114PROX   H13 4941  13.578  15.929  10.598
  114PROX    C2 4942  13.620  15.709  10.591
  114PROX   H21 4943  13.703  15.645  10.552
  114PROX    C3 4944  13.495  15.670  10.511
  114PROX   H31 4945  13.498  15.682  10.401
  114PROX   H32 4946  13.459  15.566  10.529
  114PROX   H33 4947  13.413  15.742  10.533
  115PROX    O1 4948  13.603  15.681  10.732
  115PROX    C1 4949  13.542  15.560  10.768
  115PROX   H11 4950  13.433  15.579  10.764
  115PROX   H13 4951  13.558  15.472  10.701
  115PROX    C2 4952  13.586  15.515  10.914
  115PROX   H21 4953  13.615  15.599  10.980
  115PROX    C3 4954  13.707  15.419  10.894
  115PROX   H31 4955  13.789  15.481  10.852
  115PROX   H32 4956  13.748  15.383  10.991
  115PROX   H33 4957  13.684  15.340  10.819
  116PROX    O1 4958  13.489  15.431  10.971
  116PROX    C1 4959  13.503  15.419  11.113
  116PROX   H11 4960  13.578  15.341  11.138
  116PROX   H13 4961  13.538  15.522  11.137
  116PROX    C2 4962  13.378  15.363  11.187
  116PROX   H21 4963  13.287  15.409  11.141
  116PROX    C3 4964  13.398  15.388  11.340
  116PROX   H31 4965  13.306  15.358  11.393
  116PROX   H32 4966  13.474  15.317  11.379
  116PROX   H33 4967  13.411  15.496  11.360
  117PROX    O1 4968  13.362  15.227  11.166
  117PROX    C1 4969  13.362  15.184  11.027
  117PROX   H11 4970  13.280  15.238  10.976
  117PROX   H13 4971  13.457  15.205  10.972
  117PROX    C2 4972  13.346  15.024  11.022
  117PROX   H21 4973  13.412  14.986  11.104
  117PROX    C3 4974  13.394  14.949  10.904
  117PROX   H31 4975  13.388  14.838  10.911
  117PROX   H32 4976  13.329  14.968  10.815
  117PROX   H33 4977  13.498  14.966  10.870
  118PROX    O1 4978  13.216  14.991  11.062
  118PROX    C1 4979  13.107  15.026  10.977
  118PROX   H11 4980  13.077  15.132  10.994
  118PROX   H13 4981  13.143  15.017  10.873
  118PROX    C2 4982  12.992  14.933  11.021
  118PROX   H21 4983  12.974  14.948  11.129
  118PROX    C3 4984  13.010  14.778  10.985
  118PROX   H31 4985  13.116  14.748  10.997
  118PROX   H32 4986  12.956  14.713  11.057
  118PROX   H33 4987  12.978  14.755  10.881
  119PROX    O1 4988  12.871  14.983  10.967
  119PROX    C1 4989  12.754  14.948  11.033
  119PROX   H11 4990  12.775  14.868  11.107
  119PROX   H13 4991  12.707  15.038  11.079
  119PROX    C2 4992  12.652  14.868  10.952
  119PROX   H21 4993  12.700  14.779  10.906
  119PROX    C3 4994  12.588  14.948  10.845
  119PROX   H31 4995  12.529  14.887  10.773
  119PROX   H32 4996  12.521  15.025  10.888
  119PROX   H33 4997  12.662  14.998  10.779
  120PROX    O1 4998  12.555  14.813  11.043
  120PROX    C1 4999  12.463  14.906  11.102
  120PROX   H11 5000  12.509  15.007  11.109
  120PROX   H13 5001  12.382  14.903  11.026
  120PROX    C2 5002  12.410  14.846  11.230
  120PROX   H21 5003  12.360  14.748  11.214
  120PROX    C3 5004  12.313  14.952  11.293
  120PROX   H31 5005  12.252  15.001  11.214
  120PROX   H32 5006  12.245  14.905  11.368
  120PROX   H33 5007  12.366  15.035  11.345
  121PROX    O1 5008  12.517  14.823  11.316
  121PROX    C1 5009  12.493  14.773  11.443
  121PROX   H11 5010  12.419  14.825  11.507
  121PROX   H13 5011  12.458  14.668  11.429
  121PROX    C2 5012  12.638  14.774  11.502
  121PROX   H21 5013  12.679  14.877  11.517
  121PROX    C3 5014  12.743  14.701  11.420
  121PROX   H31 5015  12.842  14.718  11.468
  121PROX   H32 5016  12.722  14.592  11.407
  121PROX   H33 5017  12.736  14.757  11.324
  122PROX    O1 5018  12.639  14.709  11.627
  122PROX    C1 5019  12.669  14.794  11.737
  122PROX   H11 5020  12.631  14.897  11.723
  122PROX   H13 5021  12.615  14.746  11.821
  122PROX    C2 5022  12.822  14.788  11.778
  122PROX   H21 5023  12.862  14.685  11.769
  122PROX    C3 5024  12.830  14.814  11.933
  122PROX   H31 5025  12.936  14.811  11.966
  122PROX   H32 5026  12.777  14.902  11.974
  122PROX   H33 5027  12.772  14.733  11.981
  123PROX    O1 5028  12.910  14.867  11.694
  123PROX    C1 5029  12.878  15.007  11.697
  123PROX   H11 5030  12.813  15.027  11.609
  123PROX   H13 5031  12.816  15.047  11.780
  123PROX    C2 5032  12.991  15.103  11.675
  123PROX   H21 5033  13.052  15.076  11.586
  123PROX    C3 5034  13.086  15.093  11.795
  123PROX   H31 5035  13.045  15.107  11.897
  123PROX   H32 5036  13.129  14.990  11.797
  123PROX   H33 5037  13.169  15.162  11.769
  124PROX    O1 5038  12.939  15.235  11.653
  124PROX    C1 5039  13.039  15.323  11.598
  124PROX   H11 5040  13.033  15.415  11.660
  124PROX   H13 5041  13.140  15.276  11.602
  124PROX    C2 5042  13.008  15.353  11.444
  124PROX   H21 5043  12.899  15.367  11.431
  124PROX    C3 5044  13.041  15.244  11.333
  124PROX   H31 5045  13.150  15.222  11.323
  124PROX   H32 5046  12.993  15.148  11.362
  124PROX   H33 5047  13.004  15.267  11.231
  125PROX    O1 5048  13.081  15.471  11.403
  125PROX    C1 5049  13.011  15.590  11.428
  125PROX   H11 5050  12.908  15.585  11.386
  125PROX   H13 5051  13.001  15.607  11.537
  125PROX    C2 5052  13.081  15.711  11.365
  125PROX   H21 5053  13.038  15.811  11.385
  125PROX    C3 5054  13.094  15.696  11.212
  125PROX   H31 5055  13.131  15.594  11.191
  125PROX   H32 5056  12.996  15.710  11.162
  125PROX   H33 5057  13.171  15.763  11.168
  126PROX    O1 5058  13.215  15.714  11.405
  126PROX    C1 5059  13.236  15.782  11.532
  126PROX   H11 5060  13.138  15.775  11.585
  126PROX   H13 5061  13.317  15.742  11.597
  126PROX    C2 5062  13.265  15.931  11.507
  126PROX   H21 5063  13.200  15.966  11.423
  126PROX    C3 5064  13.407  15.943  11.444
  126PROX   H31 5065  13.489  15.885  11.492
  126PROX   H32 5066  13.405  15.903  11.340
  126PROX   H33 5067  13.423  16.053  11.448
  127PROX    O1 5068  13.249  16.011  11.626
  127PROX    C1 5069  13.132  16.093  11.612
  127PROX   H11 5070  13.048  16.055  11.549
  127PROX   H13 5071  13.104  16.109  11.718
  127PROX    C2 5072  13.154  16.238  11.562
  127PROX   H21 5073  13.196  16.230  11.460
  127PROX    C3 5074  13.252  16.320  11.649
  127PROX   H31 5075  13.358  16.288  11.638
  127PROX   H32 5076  13.246  16.425  11.612
  127PROX   H33 5077  13.229  16.316  11.758
  128PROX    O1 5078  13.024  16.304  11.560
  128PROX    C1 5079  13.000  16.364  11.435
  128PROX   H11 5080  13.097  16.389  11.387
  128PROX   H13 5081  12.951  16.297  11.362
  128PROX    C2 5082  12.923  16.497  11.439
  128PROX   H21 5083  12.834  16.491  11.505
  128PROX    C3 5084  12.862  16.521  11.298
  128PROX   H31 5085  12.786  16.602  11.302
  128PROX   H32 5086  12.934  16.545  11.217
  128PROX   H33 5087  12.809  16.432  11.260
  129PROX    O1 5088  13.005  16.610  11.479
  129PROX    C1 5089  13.015  16.618  11.621
  129PROX   H11 5090  12.996  16.517  11.664
  129PROX   H13 5091  13.117  16.654  11.646
  129PROX    C2 5092  12.911  16.713  11.686
  129PROX   H21 5093  12.822  16.705  11.620
  129PROX    C3 5094  12.965  16.853  11.671
  129PROX   H31 5095  12.896  16.932  11.710
  129PROX   H32 5096  13.056  16.858  11.734
  129PROX   H33 5097  12.991  16.886  11.568
  130PROX    O1 5098  12.882  16.670  11.823
  130PROX    C1 5099  12.769  16.582  11.826
  130PROX   H11 5100  12.679  16.646  11.838
  130PROX   H13 5101  12.760  16.524  11.732
  130PROX    C2 5102  12.783  16.490  11.950
  130PROX   H21 5103  12.689  16.435  11.970
  130PROX    C3 5104  12.814  16.568  12.067
  130PROX   H31 5105  12.915  16.615  12.065
  130PROX   H32 5106  12.737  16.648  12.067
  130PROX   H33 5107  12.804  16.512  12.162
  131PROX    O1 5108  12.890  16.391  11.932
  131PROX    C1 5109  12.844  16.279  11.854
  131PROX   H11 5110  12.777  16.310  11.772
  131PROX   H13 5111  12.934  16.241  11.801
  131PROX    C2 5112  12.793  16.163  11.944
  131PROX   H21 5113  12.719  16.207  12.014
  131PROX    C3 5114  12.899  16.093  12.020
  131PROX   H31 5115  12.848  16.012  12.076
  131PROX   H32 5116  12.976  16.045  11.957
  131PROX   H33 5117  12.950  16.159  12.094
  132PROX    O1 5118  12.743  16.069  11.854
  132PROX    C1 5119  12.605  16.069  11.857
  132PROX   H11 5120  12.576  15.992  11.932
  132PROX   H13 5121  12.559  16.165  11.889
  132PROX    C2 5122  12.567  16.026  11.717
  132PROX   H21 5123  12.604  15.922  11.707
  132PROX    C3 5124  12.622  16.117  11.601
  132PROX   H31 5125  12.733  16.119  11.613
  132PROX   H32 5126  12.592  16.071  11.505
  132PROX   H33 5127  12.583  16.220  11.615
  133PROX    O1 5128  12.426  16.032  11.709
  133PROX    C1 5129  12.364  15.918  11.758
  133PROX   H11 5130  12.403  15.827  11.708
  133PROX   H13 5131  12.374  15.918  11.868
  133PROX    C2 5132  12.218  15.917  11.722
  133PROX   H21 5133  12.162  16.011  11.746
  133PROX    C3 5134  12.133  15.806  11.795
  133PROX   H31 5135  12.032  15.811  11.751
  133PROX   H32 5136  12.162  15.706  11.756
  133PROX   H33 5137  12.137  15.803  11.906
  134PROX    O1 5138  12.209  15.892  11.577
  134PROX    C1 5139  12.226  16.008  11.497
  134PROX   H11 5140  12.317  16.065  11.524
  134PROX   H13 5141  12.243  15.964  11.396
  134PROX    C2 5142  12.096  16.077  11.474
  134PROX   H21 5143  12.062  16.135  11.562
  134PROX    C3 5144  11.994  15.972  11.446
  134PROX   H31 5145  11.993  15.904  11.534
  134PROX   H32 5146  11.896  16.021  11.425
  134PROX   H33 5147  12.021  15.908  11.359
  135PROX    O1 5148  12.102  16.161  11.361
  135PROX    C1 5149  12.024  16.278  11.358
  135PROX   H11 5150  12.014  16.313  11.253
  135PROX   H13 5151  11.927  16.253  11.406
  135PROX    C2 5152  12.095  16.393  11.444
  135PROX   H21 5153  12.160  16.354  11.526
  135PROX    C3 5154  11.984  16.471  11.518
  135PROX   H31 5155  11.919  16.528  11.448
  135PROX   H32 5156  11.918  16.409  11.582
  135PROX   H33 5157  12.031  16.551  11.579
  136PROX    O1 5158  12.163  16.488  11.361
  136PROX    C1 5159  12.270  16.543  11.435
  136PROX   H11 5160  12.294  16.643  11.392
  136PROX   H13 5161  12.231  16.570  11.535
  136PROX    C2 5162  12.398  16.447  11.444
  136PROX   H21 5163  12.356  16.344  11.442
  136PROX    C3 5164  12.480  16.476  11.572
  136PROX   H31 5165  12.447  16.442  11.673
  136PROX   H32 5166  12.579  16.426  11.567
  136PROX   H33 5167  12.487  16.587  11.577
  137PROX    O1 5168  12.500  16.481  11.345
  137PROX    C1 5169  12.470  16.451  11.209
  137PROX   H11 5170  12.374  16.502  11.185
  137PROX   H13 5171  12.547  16.496  11.143
  137PROX    C2 5172  12.456  16.304  11.184
  137PROX   H21 5173  12.371  16.255  11.236
  137PROX    C3 5174  12.582  16.222  11.213
  137PROX   H31 5175  12.564  16.112  11.205
  137PROX   H32 5176  12.670  16.249  11.151
  137PROX   H33 5177  12.614  16.237  11.318
  138PROX    O1 5178  12.446  16.287  11.040
  138PROX    C1 5179  12.315  16.292  10.994
  138PROX   H11 5180  12.250  16.211  11.032
  138PROX   H13 5181  12.271  16.390  11.022
  138PROX    C2 5182  12.305  16.284  10.837
  138PROX   H21 5183  12.342  16.186  10.799
  138PROX    C3 5184  12.404  16.396  10.786
  138PROX   H31 5185  12.405  16.404  10.675
  138PROX   H32 5186  12.381  16.491  10.839
  138PROX   H33 5187  12.509  16.368  10.811
  139PROX    O1 5188  12.179  16.306  10.788
  139PROX    C1 5189  12.071  16.226  10.834
  139PROX   H11 5190  12.082  16.219  10.944
  139PROX   H13 5191  11.972  16.271  10.815
  139PROX    C2 5192  12.072  16.084  10.779
  139PROX   H21 5193  12.158  16.034  10.827
  139PROX    C3 5194  12.070  16.089  10.624
  139PROX   H31 5195  12.104  16.001  10.565
  139PROX   H32 5196  11.969  16.114  10.583
  139PROX   H33 5197  12.135  16.171  10.589
  140PROX    O1 5198  11.950  16.020  10.820
  140PROX    C1 5199  11.955  15.880  10.844
  140PROX   H11 5200  11.856  15.830  10.839
  140PROX   H13 5201  12.017  15.830  10.766
  140PROX    C2 5202  11.998  15.857  10.992
  140PROX   H21 5203  11.989  15.747  11.007
  140PROX    C3 5204  11.909  15.922  11.095
  140PROX   H31 5205  11.936  16.030  11.106
  140PROX   H32 5206  11.803  15.927  11.062
  140PROX   H33 5207  11.913  15.872  11.194
  141PROX    O1 5208  12.136  15.888  11.005
  141PROX    C1 5209  12.199  15.855  11.126
  141PROX   H11 5210  12.168  15.929  11.203
  141PROX   H13 5211  12.164  15.753  11.154
  141PROX    C2 5212  12.351  15.857  11.104
  141PROX   H21 5213  12.394  15.959  11.088
  141PROX    C3 5214  12.390  15.763  10.987
  141PROX   H31 5215  12.353  15.660  11.008
  141PROX   H32 5216  12.339  15.799  10.895
  141PROX   H33 5217  12.500  15.770  10.978
  142PROX    O1 5218  12.401  15.803  11.228
  142PROX    C1 5219  12.542  15.801  11.240
  142PROX   H11 5220  12.587  15.716  11.184
  142PROX   H13 5221  12.575  15.899  11.199
  142PROX    C2 5222  12.591  15.789  11.384
  142PROX   H21 5223  12.525  15.855  11.443
  142PROX    C3 5224  12.738  15.831  11.398
  142PROX   H31 5225  12.767  15.833  11.505
  142PROX   H32 5226  12.803  15.765  11.336
  142PROX   H33 5227  12.760  15.927  11.348
  143PROX    O1 5228  12.577  15.656  11.434
  143PROX    C1 5229  12.441  15.609  11.440
  143PROX   H11 5230  12.427  15.558  11.538
  143PROX   H13 5231  12.366  15.690  11.439
  143PROX    C2 5232  12.409  15.511  11.324
  143PROX   H21 5233  12.448  15.550  11.227
  143PROX    C3 5234  12.266  15.486  11.291
  143PROX   H31 5235  12.209  15.579  11.269
  143PROX   H32 5236  12.257  15.419  11.203
  143PROX   H33 5237  12.200  15.443  11.368
  144PROX    O1 5238  12.460  15.385  11.349
  144PROX    C1 5239  12.602  15.376  11.327
  144PROX   H11 5240  12.624  15.463  11.262
  144PROX   H13 5241  12.657  15.392  11.422
  144PROX    C2 5242  12.638  15.241  11.256
  144PROX   H21 5243  12.543  15.205  11.213
  144PROX    C3 5244  12.693  15.135  11.353
  144PROX   H31 5245  12.722  15.040  11.303
  144PROX   H32 5246  12.778  15.165  11.417
  144PROX   H33 5247  12.621  15.103  11.432
  145PROX    O1 5248  12.732  15.255  11.151
  145PROX    C1 5249  12.670  15.320  11.046
  145PROX   H11 5250  12.628  15.242  10.979
  145PROX   H13 5251  12.585  15.386  11.071
  145PROX    C2 5252  12.777  15.404  10.968
  145PROX   H21 5253  12.854  15.326  10.947
  145PROX    C3 5254  12.833  15.523  11.046
  145PROX   H31 5255  12.886  15.484  11.136
  145PROX   H32 5256  12.910  15.575  10.985
  145PROX   H33 5257  12.760  15.599  11.083
  146PROX    O1 5258  12.724  15.459  10.851
  146PROX    C1 5259  12.714  15.362  10.742
  146PROX   H11 5260  12.817  15.366  10.701
  146PROX   H13 5261  12.690  15.259  10.777
  146PROX    C2 5262  12.603  15.401  10.641
  146PROX   H21 5263  12.609  15.323  10.562
  146PROX    C3 5264  12.624  15.539  10.585
  146PROX   H31 5265  12.714  15.537  10.520
  146PROX   H32 5266  12.535  15.551  10.519
  146PROX   H33 5267  12.633  15.620  10.659
  147PROX    O1 5268  12.476  15.397  10.709
  147PROX    C1 5269  12.410  15.277  10.703
  147PROX   H11 5270  12.406  15.245  10.597
  147PROX   H13 5271  12.476  15.204  10.755
  147PROX    C2 5272  12.268  15.282  10.768
  147PROX   H21 5273  12.212  15.361  10.713
  147PROX    C3 5274  12.266  15.305  10.924
  147PROX   H31 5275  12.296  15.207  10.966
  147PROX   H32 5276  12.332  15.390  10.952
  147PROX   H33 5277  12.167  15.337  10.964
  148PROX    O1 5278  12.204  15.155  10.749
  148PROX    C1 5279  12.091  15.164  10.658
  148PROX   H11 5280  12.045  15.066  10.682
  148PROX   H13 5281  12.025  15.251  10.677
  148PROX    C2 5282  12.127  15.159  10.508
  148PROX   H21 5283  12.175  15.256  10.485
  148PROX    C3 5284  12.005  15.132  10.415
  148PROX   H31 5285  11.954  15.035  10.435
  148PROX   H32 5286  11.920  15.201  10.436
  148PROX   H33 5287  12.036  15.138  10.309
  149PROX    O1 5288  12.226  15.058  10.492
  149PROX    C1 5289  12.306  15.071  10.374
  149PROX   H11 5290  12.236  15.034  10.297
  149PROX   H13 5291  12.346  15.173  10.356
  149PROX    C2 5292  12.422  14.963  10.375
  149PROX   H21 5293  12.369  14.866  10.376
  149PROX    C3 5294  12.512  14.959  10.499
  149PROX   H31 5295  12.576  14.868  10.502
  149PROX   H32 5296  12.580  15.047  10.508
  149PROX   H33 5297  12.456  14.943  10.593
  150PROX    O1 5298  12.505  14.982  10.263
  150PROX    C1 5299  12.557  14.857  10.228
  150PROX   H11 5300  12.516  14.767  10.280
  150PROX   H13 5301  12.524  14.841  10.123
  150PROX    C2 5302  12.710  14.856  10.215
  150PROX   H21 5303  12.756  14.958  10.206
  150PROX    C3 5304  12.769  14.783  10.089
  150PROX   H31 5305  12.879  14.777  10.107
  150PROX   H32 5306  12.720  14.684  10.089
  150PROX   H33 5307  12.748  14.829   9.990
  151PROX    O1 5308  12.764  14.779  10.320
  151PROX    C1 5309  12.856  14.862  10.394
  151PROX   H11 5310  12.934  14.911  10.332
  151PROX   H13 5311  12.795  14.936  10.450
  151PROX    C2 5312  12.948  14.775  10.484
  151PROX   H21 5313  13.025  14.714  10.433
  151PROX    C3 5314  12.866  14.678  10.562
  151PROX   H31 5315  12.796  14.734  10.627
  151PROX   H32 5316  12.802  14.616  10.495
  151PROX   H33 5317  12.915  14.599  10.622
  152PROX    O1 5318  13.022  14.860  10.572
  152PROX    C1 5319  13.135  14.801  10.633
  152PROX   H11 5320  13.151  14.839  10.736
  152PROX   H13 5321  13.111  14.694  10.651
  152PROX    C2 5322  13.273  14.809  10.554
  152PROX   H21 5323  13.260  14.762  10.454
  152PROX    C3 5324  13.384  14.708  10.614
  152PROX   H31 5325  13.399  14.736  10.721
  152PROX   H32 5326  13.363  14.601  10.594
  152PROX   H33 5327  13.484  14.727  10.570
  153PROX    O1 5328  13.334  14.937  10.550
  153PROX    C1 5329  13.256  15.032  10.486
  153PROX   H11 5330  13.252  15.004  10.379
  153PROX   H13 5331  13.153  15.048  10.525
  153PROX    C2 5332  13.317  15.174  10.502
  153PROX   H21 5333  13.421  15.180  10.462
  153PROX    C3 5334  13.336  15.209  10.655
  153PROX   H31 5335  13.246  15.169  10.706
  153PROX   H32 5336  13.425  15.147  10.681
  153PROX   H33 5337  13.351  15.318  10.669
  154PROX    O1 5338  13.222  15.266  10.439
  154PROX    C1 5339  13.279  15.394  10.401
  154PROX   H11 5340  13.269  15.462  10.487
  154PROX   H13 5341  13.382  15.371  10.364
  154PROX    C2 5342  13.200  15.449  10.281
  154PROX   H21 5343  13.197  15.377  10.196
  154PROX    C3 5344  13.235  15.586  10.237
  154PROX   H31 5345  13.338  15.610  10.202
  154PROX   H32 5346  13.174  15.611  10.148
  154PROX   H33 5347  13.208  15.656  10.319
  155PROX    O1 5348  13.066  15.461  10.329
  155PROX    C1 5349  12.992  15.343  10.319
  155PROX   H11 5350  13.012  15.267  10.241
  155PROX   H13 5351  12.981  15.298  10.420
  155PROX    C2 5352  12.844  15.379  10.283
  155PROX   H21 5353  12.817  15.450  10.364
  155PROX    C3 5354  12.747  15.258  10.284
  155PROX   H31 5355  12.640  15.282  10.264
  155PROX   H32 5356  12.792  15.184  10.214
  155PROX   H33 5357  12.756  15.208  10.382
  156PROX    O1 5358  12.842  15.445  10.156
  156PROX    C1 5359  12.726  15.522  10.137
  156PROX   H11 5360  12.634  15.460  10.136
  156PROX   H13 5361  12.719  15.586  10.228
  156PROX    C2 5362  12.752  15.614  10.013
  156PROX   H21 5363  12.756  15.546   9.926
  156PROX    C3 5364  12.889  15.681  10.016
  156PROX   H31 5365  12.963  15.603   9.989
  156PROX   H32 5366  12.885  15.764   9.943
  156PROX   H33 5367  12.915  15.718  10.117
  157PROX    O1 5368  12.642  15.698   9.994
  157PROX    C1 5369  12.652  15.815  10.065
  157PROX   H11 5370  12.704  15.809  10.163
  157PROX   H13 5371  12.696  15.887   9.993
  157PROX    C2 5372  12.510  15.853  10.110
  157PROX   H21 5373  12.444  15.862  10.020
  157PROX    C3 5374  12.513  15.996  10.171
  157PROX   H31 5375  12.420  16.022  10.226
  157PROX   H32 5376  12.600  16.009  10.238
  157PROX   H33 5377  12.528  16.076  10.095
  158PROX    O1 5378  12.454  15.771  10.209
  158PROX    C1 5379  12.381  15.660  10.153
  158PROX   H11 5380  12.316  15.701  10.072
  158PROX   H13 5381  12.447  15.583  10.108
  158PROX    C2 5382  12.296  15.574  10.255
  158PROX   H21 5383  12.363  15.554  10.341
  158PROX    C3 5384  12.260  15.438  10.197
  158PROX   H31 5385  12.190  15.377  10.257
  158PROX   H32 5386  12.215  15.461  10.098
  158PROX   H33 5387  12.349  15.375  10.174
  159PROX    O1 5388  12.176  15.636  10.298
  159PROX    C1 5389  12.189  15.739  10.394
  159PROX   H11 5390  12.274  15.802  10.361
  159PROX   H13 5391  12.101  15.807  10.391
  159PROX    C2 5392  12.210  15.684  10.540
  159PROX   H21 5393  12.292  15.611  10.522
  159PROX    C3 5394  12.091  15.616  10.596
  159PROX   H31 5395  12.006  15.685  10.577
  159PROX   H32 5396  12.065  15.520  10.546
  159PROX   H33 5397  12.103  15.590  10.703
  160PROX    O1 5398  12.260  15.792  10.625
  160PROX    C1 5399  12.399  15.806  10.608
  160PROX   H11 5400  12.457  15.739  10.675
  160PROX   H13 5401  12.432  15.789  10.503
  160PROX    C2 5402  12.438  15.952  10.658
  160PROX   H21 5403  12.371  15.976  10.743
  160PROX    C3 5404  12.416  16.053  10.541
  160PROX   H31 5405  12.314  16.048  10.497
  160PROX   H32 5406  12.443  16.154  10.579
  160PROX   H33 5407  12.478  16.029  10.452
  161PROX    O1 5408  12.573  15.947  10.704
  161PROX    C1 5409  12.604  16.046  10.803
  161PROX   H11 5410  12.587  16.146  10.759
  161PROX   H13 5411  12.530  16.039  10.885
  161PROX    C2 5412  12.743  16.030  10.856
  161PROX   H21 5413  12.810  16.006  10.771
  161PROX    C3 5414  12.773  15.910  10.957
  161PROX   H31 5415  12.748  15.814  10.907
  161PROX   H32 5416  12.883  15.902  10.972
  161PROX   H33 5417  12.724  15.918  11.057
  162PROX    O1 5418  12.781  16.154  10.922
  162PROX    C1 5419  12.839  16.244  10.826
  162PROX   H11 5420  12.925  16.198  10.773
  162PROX   H13 5421  12.771  16.272  10.742
  162PROX    C2 5422  12.871  16.382  10.894
  162PROX   H21 5423  12.901  16.351  10.997
  162PROX    C3 5424  12.765  16.490  10.905
  162PROX   H31 5425  12.712  16.511  10.809
  162PROX   H32 5426  12.697  16.440  10.977
  162PROX   H33 5427  12.798  16.579  10.962
  163PROX    O1 5428  12.985  16.440  10.825
  163PROX    C1 5429  13.059  16.519  10.919
  163PROX   H11 5430  13.026  16.622  10.893
  163PROX   H13 5431  13.043  16.521  11.029
  163PROX    C2 5432  13.210  16.512  10.883
  163PROX   H21 5433  13.257  16.415  10.912
  163PROX    C3 5434  13.285  16.625  10.948
  163PROX   H31 5435  13.388  16.628  10.907
  163PROX   H32 5436  13.235  16.718  10.912
  163PROX   H33 5437  13.269  16.640  11.057
  164PROX    O1 5438  13.235  16.537  10.742
  164PROX    C1 5439  13.254  16.407  10.679
  164PROX   H11 5440  13.350  16.357  10.706
  164PROX   H13 5441  13.164  16.349  10.708
  164PROX    C2 5442  13.246  16.415  10.524
  164PROX   H21 5443  13.333  16.479  10.497
  164PROX    C3 5444  13.110  16.463  10.476
  164PROX   H31 5445  13.090  16.552  10.540
  164PROX   H32 5446  13.110  16.499  10.371
  164PROX   H33 5447  13.033  16.383  10.477
  165PROX    O1 5448  13.258  16.286  10.472
  165PROX    C1 5449  13.382  16.261  10.403
  165PROX   H11 5450  13.407  16.344  10.334
  165PROX   H13 5451  13.468  16.249  10.472
  165PROX    C2 5452  13.370  16.136  10.309
  165PROX   H21 5453  13.266  16.148  10.272
  165PROX    C3 5454  13.378  16.003  10.379
  165PROX   H31 5455  13.349  15.915  10.318
  165PROX   H32 5456  13.481  15.997  10.420
  165PROX   H33 5457  13.302  16.010  10.460
  166ETHO    O1 5458  13.473  16.132  10.206
  166ETHO    C1 5459  13.429  16.065  10.089
  166ETHO   H11 5460  13.374  15.970  10.109
  166ETHO   H13 5461  13.522  16.033  10.038
  166ETHO    C2 5462  13.356  16.160   9.989
  166ETHO   H21 5463  13.347  16.111   9.890
  166ETHO   H23 5464  13.415  16.253   9.974
  167ETHO    O1 5465  13.228  16.201  10.040
  167ETHO    C1 5466  13.165  16.297   9.956
  167ETHO   H11 5467  13.202  16.282   9.852
  167ETHO   H13 5468  13.056  16.276   9.956
  167ETHO    C2 5469  13.183  16.437  10.000
  167ETHO   H21 5470  13.290  16.463   9.986
  167ETHO   H23 5471  13.146  16.443  10.104
  168ETHO    O1 5472  13.102  16.531   9.930
  168ETHO    C1 5473  13.165  16.593   9.822
  168ETHO   H11 5474  13.176  16.512   9.747
  168ETHO   H13 5475  13.264  16.635   9.848
  168ETHO    C2 5476  13.086  16.712   9.755
  168ETHO   H21 5477  12.978  16.689   9.739
  168ETHO   H23 5478  13.132  16.726   9.655
  169ETHO    O1 5479  13.112  16.832   9.834
  169ETHO    C1 5480  13.057  16.943   9.757
  169ETHO   H11 5481  13.132  16.963   9.678
  169ETHO   H13 5482  12.953  16.931   9.719
  169ETHO    C2 5483  13.056  17.078   9.839
  169ETHO   H21 5484  13.087  17.166   9.778
  169ETHO   H23 5485  13.127  17.072   9.924
  170ETHO    O1 5486  12.931  17.109   9.902
  170ETHO    C1 5487  12.930  17.240   9.954
  170ETHO   H11 5488  12.985  17.314   9.893
  170ETHO   H13 5489  12.987  17.224  10.049
  170ETHO    C2 5490  12.784  17.275   9.967
  170ETHO   H21 5491  12.766  17.336  10.058
  170ETHO   H23 5492  12.714  17.190   9.983
  171ETHO    O1 5493  12.737  17.348   9.854
  171ETHO    C1 5494  12.613  17.409   9.876
  171ETHO   H11 5495  12.550  17.320   9.898
  171ETHO   H13 5496  12.602  17.465   9.971
  171ETHO    C2 5497  12.559  17.491   9.762
  171ETHO   H21 5498  12.451  17.510   9.782
  171ETHO   H23 5499  12.550  17.423   9.675
  172ETHO    O1 5500  12.634  17.609   9.741
  172ETHO    C1 5501  12.558  17.688   9.654
  172ETHO   H11 5502  12.460  17.714   9.699
  172ETHO   H13 5503  12.543  17.650   9.551
  172ETHO    C2 5504  12.630  17.820   9.649
  172ETHO   H21 5505  12.628  17.844   9.758
  172ETHO   H23 5506  12.577  17.902   9.597
  173ETHO    O1 5507  12.768  17.810   9.605
  173ETHO    C1 5508  12.833  17.936   9.624
  173ETHO   H11 5509  12.787  18.002   9.547
  173ETHO   H13 5510  12.812  17.980   9.723
  173ETHO    C2 5511  12.980  17.927   9.592
  173ETHO   H21 5512  13.026  17.852   9.660
  173ETHO   H23 5513  13.013  17.901   9.489
  174ETHO    O1 5514  13.020  18.063   9.605
  174ETHO    C1 5515  13.158  18.075   9.559
  174ETHO   H11 5516  13.225  18.002   9.610
  174ETHO   H13 5517  13.161  18.047   9.451
  174ETHO    C2 5518  13.201  18.224   9.570
  174ETHO   H21 5519  13.128  18.284   9.511
  174ETHO   H23 5520  13.297  18.259   9.526
  175ETHO    O1 5521  13.201  18.269   9.703
  175ETHO    C1 5522  13.187  18.409   9.714
  175ETHO   H11 5523  13.282  18.447   9.670
  175ETHO   H13 5524  13.099  18.442   9.654
  175ETHO    C2 5525  13.152  18.454   9.858
  175ETHO   H21 5526  13.212  18.389   9.924
  175ETHO   H23 5527  13.045  18.433   9.879
  176ETHO    O1 5528  13.170  18.595   9.883
  176ETHO    C1 5529  13.145  18.622  10.020
  176ETHO   H11 5530  13.035  18.608  10.030
  176ETHO   H13 5531  13.211  18.563  10.087
  176ETHO    C2 5532  13.195  18.772  10.043
  176ETHO   H21 5533  13.293  18.782   9.991
  176ETHO   H23 5534  13.198  18.808  10.148
  177ETHO    O1 5535  13.091  18.839   9.976
  177ETHO    C1 5536  13.134  18.977   9.954
  177ETHO   H11 5537  13.224  18.972   9.889
  177ETHO   H13 5538  13.161  19.031  10.047
  177ETHO    C2 5539  13.020  19.063   9.890
  177ETHO   H21 5540  12.974  19.007   9.805
  177ETHO   H23 5541  13.070  19.153   9.848
  178ETHO    O1 5542  12.929  19.110   9.991
  178ETHO    C1 5543  12.816  19.172   9.934
  178ETHO   H11 5544  12.787  19.104   9.851
  178ETHO   H13 5545  12.733  19.162  10.007
  178ETHO    C2 5546  12.835  19.322   9.894
  178ETHO   H21 5547  12.742  19.358   9.845
  178ETHO   H23 5548  12.908  19.321   9.809
  179ETHO    O1 5549  12.871  19.405   9.997
  179ETHO    C1 5550  12.912  19.525   9.941
  179ETHO   H11 5551  12.928  19.592  10.028
  179ETHO   H13 5552  12.833  19.559   9.872
  179ETHO    C2 5553  13.047  19.520   9.860
  179ETHO   H21 5554  13.107  19.430   9.885
  179ETHO   H23 5555  13.104  19.612   9.886
  180ETHO    O1 5556  13.030  19.522   9.720
  180ETHO    C1 5557  13.160  19.547   9.657
  180ETHO   H11 5558  13.185  19.655   9.669
  180ETHO   H13 5559  13.229  19.471   9.700
  180ETHO    C2 5560  13.145  19.528   9.506
  180ETHO   H21 5561  13.227  19.584   9.456
  180ETHO   H23 5562  13.040  19.564   9.501
  181ETHO    O1 5563  13.140  19.383   9.493
  181ETHO    C1 5564  13.130  19.339   9.361
  181ETHO   H11 5565  13.233  19.348   9.321
  181ETHO   H13 5566  13.066  19.404   9.299
  181ETHO    C2 5567  13.091  19.198   9.359
  181ETHO   H21 5568  13.151  19.139   9.433
  181ETHO   H23 5569  13.112  19.159   9.257
  182ETHO    O1 5570  12.958  19.178   9.396
  182ETHO    C1 5571  12.930  19.038   9.393
  182ETHO   H11 5572  12.899  19.004   9.292
  182ETHO   H13 5573  13.022  18.987   9.428
  182ETHO    C2 5574  12.814  18.994   9.488
  182ETHO   H21 5575  12.818  19.045   9.587
  182ETHO   H23 5576  12.831  18.886   9.508
  183ETHO    O1 5577  12.686  19.014   9.423
  183ETHO    C1 5578  12.598  19.078   9.514
  183ETHO   H11 5579  12.644  19.174   9.548
  183ETHO   H13 5580  12.591  19.015   9.605
  183ETHO    C2 5581  12.460  19.082   9.461
  183ETHO   H21 5582  12.402  19.137   9.538
  183ETHO   H23 5583  12.420  18.979   9.449
  184ETHO    O1 5584  12.453  19.153   9.337
  184ETHO    C1 5585  12.319  19.181   9.307
  184ETHO   H11 5586  12.273  19.081   9.291
  184ETHO   H13 5587  12.259  19.216   9.393
  184ETHO    C2 5588  12.310  19.281   9.189
  184ETHO   H21 5589  12.358  19.379   9.212
  184ETHO   H23 5590  12.200  19.298   9.180
  185ETHO    O1 5591  12.350  19.227   9.060
  185ETHO    C1 5592  12.308  19.310   8.952
  185ETHO   H11 5593  12.200  19.305   8.928
  185ETHO   H13 5594  12.331  19.416   8.976
  185ETHO    C2 5595  12.374  19.269   8.823
  185ETHO   H21 5596  12.485  19.263   8.823
  185ETHO   H23 5597  12.363  19.354   8.752
  186ETHO    O1 5598  12.317  19.159   8.753
  186ETHO    C1 5599  12.356  19.033   8.796
  186ETHO   H11 5600  12.458  19.018   8.754
  186ETHO   H13 5601  12.357  19.019   8.906
  186ETHO    C2 5602  12.272  18.913   8.735
  186ETHO   H21 5603  12.331  18.819   8.732
  186ETHO   H23 5604  12.258  18.936   8.627
  187ETHO    O1 5605  12.154  18.889   8.791
  187ETHO    C1 5606  12.066  18.801   8.718
  187ETHO   H11 5607  12.058  18.828   8.610
  187ETHO   H13 5608  12.107  18.698   8.722
  187ETHO    C2 5609  11.919  18.794   8.772
  187ETHO   H21 5610  11.936  18.762   8.877
  187ETHO   H23 5611  11.882  18.713   8.707
  188ETHO    O1 5612  11.826  18.899   8.751
  188ETHO    C1 5613  11.857  19.017   8.817
  188ETHO   H11 5614  11.894  18.991   8.919
  188ETHO   H13 5615  11.765  19.079   8.826
  188ETHO    C2 5616  11.959  19.121   8.748
  188ETHO   H21 5617  12.047  19.082   8.693
  188ETHO   H23 5618  12.004  19.186   8.826
  189ETHO    O1 5619  11.885  19.211   8.666
  189ETHO    C1 5620  11.953  19.242   8.544
  189ETHO   H11 5621  12.063  19.230   8.547
  189ETHO   H13 5622  11.923  19.164   8.471
  189ETHO    C2 5623  11.915  19.384   8.501
  189ETHO   H21 5624  11.972  19.412   8.410
  189ETHO   H23 5625  11.940  19.452   8.586
  190ETHO    O1 5626  11.787  19.403   8.457
  190ETHO    C1 5627  11.757  19.542   8.437
  190ETHO   H11 5628  11.821  19.592   8.361
  190ETHO   H13 5629  11.769  19.598   8.532
  190ETHO    C2 5630  11.614  19.565   8.389
  190ETHO   H21 5631  11.587  19.673   8.389
  190ETHO   H23 5632  11.550  19.527   8.470
  191ETHO    O1 5633  11.599  19.507   8.264
  191ETHO    C1 5634  11.512  19.576   8.177
  191ETHO   H11 5635  11.484  19.503   8.097
  191ETHO   H13 5636  11.429  19.612   8.241
  191ETHO    C2 5637  11.572  19.687   8.083
  191ETHO   H21 5638  11.606  19.768   8.152
  191ETHO   H23 5639  11.491  19.735   8.023
  192ETHO    O1 5640  11.684  19.633   8.013
  192ETHO    C1 5641  11.763  19.742   7.974
  192ETHO   H11 5642  11.812  19.774   8.068
  192ETHO   H13 5643  11.698  19.819   7.927
  192ETHO    C2 5644  11.873  19.700   7.868
  192ETHO   H21 5645  11.928  19.784   7.820
  192ETHO   H23 5646  11.818  19.648   7.786
  193ETHO    O1 5647  11.970  19.611   7.931
  193ETHO    C1 5648  12.082  19.578   7.848
  193ETHO   H11 5649  12.048  19.590   7.743
  193ETHO   H13 5650  12.165  19.649   7.870
  193ETHO    C2 5651  12.121  19.427   7.861
  193ETHO   H21 5652  12.167  19.398   7.958
  193ETHO   H23 5653  12.205  19.399   7.793
  194ETHO    O1 5654  12.008  19.352   7.811
  194ETHO    C1 5655  12.016  19.218   7.859
  194ETHO   H11 5656  12.002  19.239   7.967
  194ETHO   H13 5657  12.115  19.169   7.845
  194ETHO    C2 5658  11.898  19.133   7.808
  194ETHO   H21 5659  11.805  19.193   7.803
  194ETHO   H23 5660  11.877  19.047   7.876
  195ETHO    O1 5661  11.937  19.075   7.690
  195ETHO    C1 5662  11.838  18.984   7.644
  195ETHO   H11 5663  11.747  18.990   7.707
  195ETHO   H13 5664  11.811  19.025   7.544
  195ETHO    C2 5665  11.868  18.839   7.634
  195ETHO   H21 5666  11.946  18.816   7.559
  195ETHO   H23 5667  11.781  18.792   7.583
  196ETHO    O1 5668  11.884  18.787   7.763
  196ETHO    C1 5669  11.815  18.668   7.779
  196ETHO   H11 5670  11.709  18.697   7.763
  196ETHO   H13 5671  11.842  18.585   7.710
  196ETHO    C2 5672  11.847  18.602   7.909
  196ETHO   H21 5673  11.949  18.558   7.907
  196ETHO   H23 5674  11.771  18.521   7.912
  197ETHO    O1 5675  11.834  18.676   8.033
  197ETHO    C1 5676  11.917  18.624   8.134
  197ETHO   H11 5677  11.918  18.513   8.140
  197ETHO   H13 5678  12.024  18.645   8.112
  197ETHO    C2 5679  11.866  18.673   8.267
  197ETHO   H21 5680  11.926  18.615   8.341
  197ETHO   H23 5681  11.760  18.641   8.281
  198ETHO    O1 5682  11.885  18.809   8.289
  198ETHO    C1 5683  11.842  18.847   8.418
  198ETHO   H11 5684  11.865  18.766   8.491
  198ETHO   H13 5685  11.893  18.942   8.444
  198ETHO    C2 5686  11.690  18.873   8.417
  198ETHO   H21 5687  11.658  18.907   8.316
  198ETHO   H23 5688  11.667  18.940   8.502
  199ETHO    O1 5689  11.619  18.754   8.437
  199ETHO    C1 5690  11.473  18.776   8.444
  199ETHO   H11 5691  11.446  18.821   8.346
  199ETHO   H13 5692  11.457  18.846   8.529
  199ETHO    C2 5693  11.406  18.638   8.451
  199ETHO   H21 5694  11.420  18.577   8.359
  199ETHO   H23 5695  11.297  18.658   8.445
  200ETHO    O1 5696  11.430  18.563   8.568
  200ETHO    C1 5697  11.363  18.438   8.563
  200ETHO   H11 5698  11.257  18.464   8.582
  200ETHO   H13 5699  11.365  18.387   8.464
  200ETHO    C2 5700  11.408  18.339   8.673
  200ETHO   H21 5701  11.338  18.254   8.663
  200ETHO   H23 5702  11.391  18.383   8.774
  201ETHO    O1 5703  11.541  18.288   8.663
  201ETHO    C1 5704  11.570  18.206   8.777
  201ETHO   H11 5705  11.515  18.110   8.769
  201ETHO   H13 5706  11.543  18.269   8.864
  201ETHO    C2 5707  11.725  18.176   8.815
  201ETHO   H21 5708  11.777  18.273   8.829
  201ETHO   H23 5709  11.776  18.116   8.737
  202ETHO    O1 5710  11.737  18.110   8.935
  202ETHO    C1 5711  11.871  18.112   8.976
  202ETHO   H11 5712  11.941  18.096   8.892
  202ETHO   H13 5713  11.900  18.213   9.012
  202ETHO    C2 5714  11.899  18.011   9.086
  202ETHO   H21 5715  11.814  18.012   9.158
  202ETHO   H23 5716  11.981  18.051   9.149
  203ETHO    O1 5717  11.921  17.879   9.042
  203ETHO    C1 5718  11.951  17.792   9.150
  203ETHO   H11 5719  11.873  17.812   9.227
  203ETHO   H13 5720  12.050  17.812   9.195
  203ETHO    C2 5721  11.967  17.645   9.101
  203ETHO   H21 5722  11.895  17.622   9.020
  203ETHO   H23 5723  11.942  17.574   9.183
  204ETHO    O1 5724  12.091  17.623   9.051
  204ETHO    C1 5725  12.118  17.484   9.046
  204ETHO   H11 5726  12.095  17.442   9.147
  204ETHO   H13 5727  12.050  17.440   8.969
  204ETHO    C2 5728  12.267  17.449   9.025
  204ETHO   H21 5729  12.316  17.439   9.124
  204ETHO   H23 5730  12.320  17.522   8.960
  205ETHO    O1 5731  12.273  17.329   8.951
  205ETHO    C1 5732  12.406  17.290   8.939
  205ETHO   H11 5733  12.454  17.277   9.038
  205ETHO   H13 5734  12.458  17.368   8.878
  205ETHO    C2 5735  12.413  17.158   8.868
  205ETHO   H21 5736  12.328  17.097   8.905
  205ETHO   H23 5737  12.502  17.094   8.881
  206ETHO    O1 5738  12.394  17.182   8.731
  206ETHO    C1 5739  12.359  17.066   8.658
  206ETHO   H11 5740  12.450  17.003   8.651
  206ETHO   H13 5741  12.281  17.002   8.706
  206ETHO    C2 5742  12.302  17.097   8.519
  206ETHO   H21 5743  12.375  17.173   8.483
  206ETHO   H23 5744  12.300  17.009   8.451
  207ETHO    O1 5745  12.172  17.148   8.519
  207ETHO    C1 5746  12.112  17.135   8.398
  207ETHO   H11 5747  12.178  17.162   8.313
  207ETHO   H13 5748  12.032  17.212   8.402
  207ETHO    C2 5749  12.042  16.996   8.368
  207ETHO   H21 5750  11.968  17.021   8.289
  207ETHO   H23 5751  12.000  16.955   8.463
  208ETHO    O1 5752  12.134  16.906   8.317
  208ETHO    C1 5753  12.083  16.775   8.278
  208ETHO   H11 5754  12.002  16.796   8.204
  208ETHO   H13 5755  12.159  16.719   8.219
  208ETHO    C2 5756  12.016  16.681   8.386
  208ETHO   H21 5757  12.087  16.675   8.470
  208ETHO   H23 5758  12.003  16.581   8.340
  209ETHO    O1 5759  11.889  16.720   8.424
  209ETHO    C1 5760  11.859  16.703   8.561
  209ETHO   H11 5761  11.766  16.762   8.579
  209ETHO   H13 5762  11.942  16.745   8.621
  209ETHO    C2 5763  11.847  16.552   8.598
  209ETHO   H21 5764  11.943  16.497   8.583
  209ETHO   H23 5765  11.769  16.503   8.536
  210ETHO    O1 5766  11.794  16.542   8.732
  210ETHO    C1 5767  11.892  16.563   8.836
  210ETHO   H11 5768  11.990  16.589   8.792
  210ETHO   H13 5769  11.862  16.648   8.901
  210ETHO    C2 5770  11.912  16.440   8.922
  210ETHO   H21 5771  11.815  16.395   8.952
  210ETHO   H23 5772  11.953  16.476   9.019
  211ETHO    O1 5773  12.006  16.339   8.879
  211ETHO    C1 5774  11.996  16.224   8.968
  211ETHO   H11 5775  12.009  16.258   9.073
  211ETHO   H13 5776  11.896  16.177   8.955
  211ETHO    C2 5777  12.093  16.106   8.940
  211ETHO   H21 5778  12.082  16.016   9.005
  211ETHO   H23 5779  12.189  16.159   8.957
  212ETHO    O1 5780  12.067  16.062   8.809
  212ETHO    C1 5781  12.188  16.017   8.745
  212ETHO   H11 5782  12.238  15.938   8.806
  212ETHO   H13 5783  12.149  15.978   8.648
  212ETHO    C2 5784  12.284  16.135   8.708
  212ETHO   H21 5785  12.228  16.225   8.674
  212ETHO   H23 5786  12.351  16.102   8.625
  213ETHO    O1 5787  12.361  16.176   8.816
  213ETHO    C1 5788  12.469  16.095   8.831
  213ETHO   H11 5789  12.463  16.005   8.766
  213ETHO   H13 5790  12.557  16.159   8.811
  213ETHO    C2 5791  12.472  16.036   8.967
  213ETHO   H21 5792  12.395  15.959   8.985
  213ETHO   H23 5793  12.450  16.124   9.032
  214ETHO    O1 5794  12.603  15.985   9.004
  214ETHO    C1 5795  12.622  15.984   9.140
  214ETHO   H11 5796  12.680  15.891   9.153
  214ETHO   H13 5797  12.526  15.950   9.185
  214ETHO    C2 5798  12.693  16.102   9.207
  214ETHO   H21 5799  12.653  16.089   9.311
  214ETHO   H23 5800  12.657  16.191   9.152
  215ETHO    O1 5801  12.827  16.096   9.212
  215ETHO    C1 5802  12.889  16.221   9.244
  215ETHO   H11 5803  12.872  16.299   9.167
  215ETHO   H13 5804  12.840  16.258   9.336
  215ETHO    C2 5805  13.040  16.204   9.259
  215ETHO   H21 5806  13.060  16.134   9.343
  215ETHO   H23 5807  13.091  16.300   9.283
  216ETHO    O1 5808  13.100  16.157   9.143
  216ETHO    C1 5809  13.164  16.247   9.063
  216ETHO   H11 5810  13.086  16.325   9.057
  216ETHO   H13 5811  13.174  16.211   8.958
  216ETHO    C2 5812  13.292  16.313   9.114
  216ETHO   H21 5813  13.276  16.342   9.220
  216ETHO   H23 5814  13.316  16.408   9.062
  217ETHO    O1 5815  13.391  16.210   9.104
  217ETHO    C1 5816  13.504  16.228   9.190
  217ETHO   H11 5817  13.466  16.239   9.293
  217ETHO   H13 5818  13.562  16.133   9.190
  217ETHO    C2 5819  13.606  16.325   9.140
  217ETHO   H21 5820  13.685  16.341   9.216
  217ETHO   H23 5821  13.551  16.422   9.131
  218ETHO    O1 5822  13.667  16.285   9.022
  218ETHO    C1 5823  13.795  16.340   9.017
  218ETHO   H11 5824  13.860  16.281   9.084
  218ETHO   H13 5825  13.793  16.446   9.051
  218ETHO    C2 5826  13.865  16.335   8.879
  218ETHO   H21 5827  13.961  16.390   8.882
  218ETHO   H23 5828  13.800  16.377   8.800
  219ETHO    O1 5829  13.902  16.202   8.843
  219ETHO    C1 5830  13.803  16.145   8.769
  219ETHO   H11 5831  13.706  16.189   8.800
  219ETHO   H13 5832  13.817  16.170   8.662
  219ETHO    C2 5833  13.789  15.990   8.773
  219ETHO   H21 5834  13.879  15.947   8.724
  219ETHO   H23 5835  13.703  15.953   8.714
  220ETHO    O1 5836  13.791  15.931   8.906
  220ETHO    C1 5837  13.669  15.958   8.974
  220ETHO   H11 5838  13.579  15.949   8.909
  220ETHO   H13 5839  13.679  16.056   9.025
  220ETHO    C2 5840  13.652  15.843   9.071
  220ETHO   H21 5841  13.648  15.740   9.031
  220ETHO   H23 5842  13.550  15.841   9.115
  221ETHO    O1 5843  13.745  15.847   9.182
  221ETHO    C1 5844  13.721  15.747   9.282
  221ETHO   H11 5845  13.623  15.773   9.328
  221ETHO   H13 5846  13.718  15.647   9.232
  221ETHO    C2 5847  13.831  15.738   9.392
  221ETHO   H21 5848  13.871  15.841   9.410
  221ETHO   H23 5849  13.926  15.686   9.365
  222ETHO    O1 5850  13.765  15.688   9.506
  222ETHO    C1 5851  13.855  15.700   9.613
  222ETHO   H11 5852  13.936  15.627   9.591
  222ETHO   H13 5853  13.884  15.807   9.623
  222ETHO    C2 5854  13.787  15.646   9.734
  222ETHO   H21 5855  13.859  15.607   9.810
  222ETHO   H23 5856  13.736  15.550   9.711
  223ETHO    O1 5857  13.710  15.744   9.800
  223ETHO    C1 5858  13.645  15.699   9.914
  223ETHO   H11 5859  13.704  15.623   9.969
  223ETHO   H13 5860  13.625  15.789   9.976
  223ETHO    C2 5861  13.501  15.648   9.867
  223ETHO   H21 5862  13.451  15.614   9.960
  223ETHO   H23 5863  13.508  15.568   9.791
  224ETHO    O1 5864  13.418  15.752   9.818
  224ETHO    C1 5865  13.277  15.710   9.806
  224ETHO   H11 5866  13.273  15.640   9.720
  224ETHO   H13 5867  13.250  15.658   9.901
  224ETHO    C2 5868  13.184  15.833   9.786
  224ETHO   H21 5869  13.209  15.901   9.870
  224ETHO   H23 5870  13.080  15.793   9.790
  225ETHO    O1 5871  13.191  15.911   9.665
  225ETHO    C1 5872  13.105  16.029   9.667
  225ETHO   H11 5873  13.142  16.104   9.594
  225ETHO   H13 5874  13.106  16.077   9.767
  225ETHO    C2 5875  12.966  16.000   9.607
  225ETHO   H21 5876  12.930  15.901   9.642
  225ETHO   H23 5877  12.967  15.990   9.496
  226ETHO    O1 5878  12.862  16.094   9.648
  226ETHO    C1 5879  12.731  16.045   9.613
  226ETHO   H11 5880  12.712  16.025   9.505
  226ETHO   H13 5881  12.717  15.948   9.664
  226ETHO    C2 5882  12.622  16.148   9.658
  226ETHO   H21 5883  12.650  16.180   9.760
  226ETHO   H23 5884  12.531  16.085   9.653
  227ETHO    O1 5885  12.605  16.258   9.573
  227ETHO    C1 5886  12.675  16.378   9.617
  227ETHO   H11 5887  12.783  16.353   9.607
  227ETHO   H13 5888  12.643  16.409   9.718
  227ETHO    C2 5889  12.653  16.489   9.511
  227ETHO   H21 5890  12.550  16.525   9.533
  227ETHO   H23 5891  12.654  16.433   9.415
  228ETHO    O1 5892  12.742  16.597   9.521
  228ETHO    C1 5893  12.679  16.720   9.465
  228ETHO   H11 5894  12.629  16.709   9.367
  228ETHO   H13 5895  12.602  16.758   9.535
  228ETHO    C2 5896  12.782  16.836   9.453
  228ETHO   H21 5897  12.845  16.845   9.544
  228ETHO   H23 5898  12.730  16.933   9.436
  229ETHO    O1 5899  12.873  16.800   9.350
  229ETHO    C1 5900  12.990  16.881   9.343
  229ETHO   H11 5901  13.052  16.852   9.430
  229ETHO   H13 5902  12.955  16.985   9.358
  229ETHO    C2 5903  13.082  16.867   9.222
  229ETHO   H21 5904  13.088  16.760   9.191
  229ETHO   H23 5905  13.177  16.906   9.265
  230ETHO    O1 5906  13.035  16.944   9.115
  230ETHO    C1 5907  13.134  16.952   9.013
  230ETHO   H11 5908  13.227  17.002   9.047
  230ETHO   H13 5909  13.151  16.848   8.975
  230ETHO    C2 5910  13.081  17.030   8.883
  230ETHO   H21 5911  12.981  16.993   8.855
  230ETHO   H23 5912  13.154  17.015   8.801
  231ETHO    O1 5913  13.094  17.174   8.882
  231ETHO    C1 5914  13.056  17.220   8.749
  231ETHO   H11 5915  12.965  17.160   8.726
  231ETHO   H13 5916  13.121  17.177   8.671
  231ETHO    C2 5917  13.057  17.373   8.737
  231ETHO   H21 5918  13.063  17.398   8.629
  231ETHO   H23 5919  13.146  17.416   8.788
  232ETHO    O1 5920  12.940  17.425   8.786
  232ETHO    C1 5921  12.961  17.561   8.816
  232ETHO   H11 5922  13.020  17.576   8.909
  232ETHO   H13 5923  13.021  17.603   8.732
  232ETHO    C2 5924  12.828  17.636   8.816
  232ETHO   H21 5925  12.835  17.739   8.857
  232ETHO   H23 5926  12.750  17.571   8.862
  233ETHO    O1 5927  12.806  17.661   8.684
  233ETHO    C1 5928  12.669  17.697   8.664
  233ETHO   H11 5929  12.637  17.671   8.560
  233ETHO   H13 5930  12.604  17.635   8.730
  233ETHO    C2 5931  12.646  17.843   8.682
  233ETHO   H21 5932  12.680  17.875   8.783
  233ETHO   H23 5933  12.537  17.864   8.677
  234ETHO    O1 5934  12.719  17.927   8.581
  234ETHO    C1 5935  12.728  18.067   8.623
  234ETHO   H11 5936  12.627  18.112   8.636
  234ETHO   H13 5937  12.782  18.083   8.719
  234ETHO    C2 5938  12.802  18.147   8.515
  234ETHO   H21 5939  12.754  18.129   8.416
  234ETHO   H23 5940  12.907  18.111   8.513
  235ETHO    O1 5941  12.818  18.288   8.554
  235ETHO    C1 5942  12.876  18.362   8.451
  235ETHO   H11 5943  12.941  18.301   8.385
  235ETHO   H13 5944  12.789  18.398   8.391
  235ETHO    C2 5945  12.966  18.479   8.508
  235ETHO   H21 5946  12.911  18.549   8.574
  235ETHO   H23 5947  12.980  18.542   8.417
  236ETHO    O1 5948  13.094  18.432   8.556
  236ETHO    C1 5949  13.179  18.548   8.566
  236ETHO   H11 5950  13.119  18.641   8.554
  236ETHO   H13 5951  13.253  18.539   8.483
  236ETHO    C2 5952  13.259  18.541   8.695
  236ETHO   H21 5953  13.340  18.617   8.694
  236ETHO   H23 5954  13.309  18.442   8.691
  237ETHO    O1 5955  13.169  18.538   8.809
  237ETHO    C1 5956  13.232  18.526   8.938
  237ETHO   H11 5957  13.150  18.526   9.013
  237ETHO   H13 5958  13.263  18.419   8.946
  237ETHO    C2 5959  13.336  18.632   8.975
  237ETHO   H21 5960  13.341  18.652   9.084
  237ETHO   H23 5961  13.301  18.730   8.934
  238ETHO    O1 5962  13.472  18.597   8.943
  238ETHO    C1 5963  13.569  18.666   9.014
  238ETHO   H11 5964  13.664  18.616   8.984
  238ETHO   H13 5965  13.555  18.664   9.124
  238ETHO    C2 5966  13.584  18.804   8.943
  238ETHO   H21 5967  13.559  18.791   8.836
  238ETHO   H23 5968  13.693  18.824   8.956
  239ETHO    O1 5969  13.518  18.899   9.020
  239ETHO    C1 5970  13.558  19.032   8.990
  239ETHO   H11 5971  13.668  19.052   8.996
  239ETHO   H13 5972  13.532  19.054   8.884
  239ETHO    C2 5973  13.483  19.125   9.089
  239ETHO   H21 5974  13.481  19.230   9.051
  239ETHO   H23 5975  13.381  19.084   9.100
  240ETHO    O1 5976  13.549  19.120   9.211
  240ETHO    C1 5977  13.496  19.222   9.301
  240ETHO   H11 5978  13.526  19.181   9.400
  240ETHO   H13 5979  13.386  19.207   9.315
  240ETHO    C2 5980  13.530  19.374   9.273
  240ETHO   H21 5981  13.500  19.436   9.360
  240ETHO   H23 5982  13.479  19.424   9.188
  241ETHO    O1 5983  13.668  19.394   9.250
  241ETHO    C1 5984  13.703  19.529   9.238
  241ETHO   H11 5985  13.660  19.555   9.139
  241ETHO   H13 5986  13.653  19.587   9.318
  241ETHO    C2 5987  13.855  19.553   9.222
  241ETHO   H21 5988  13.917  19.478   9.167
  241ETHO   H23 5989  13.908  19.549   9.319
  242ETHO    O1 5990  13.857  19.681   9.166
  242ETHO    C1 5991  13.980  19.745   9.187
  242ETHO   H11 5992  14.065  19.712   9.124
  242ETHO   H13 5993  14.015  19.737   9.292
  242ETHO    C2 5994  13.979  19.894   9.159
  242ETHO   H21 5995  14.075  19.937   9.193
  242ETHO   H23 5996  13.891  19.949   9.200
  243ETHO    O1 5997  13.990  19.924   9.022
  243ETHO    C1 5998  13.867  19.910   8.952
  243ETHO   H11 5999  13.808  19.818   8.972
  243ETHO   H13 6000  13.795  19.993   8.967
  243ETHO    C2 6001  13.894  19.901   8.801
  243ETHO   H21 6002  13.836  19.816   8.758
  243ETHO   H23 6003  14.001  19.871   8.794
  244ETHO    O1 6004  13.865  20.023   8.730
  244ETHO    C1 6005  13.934  20.027   8.605
  244ETHO   H11 6006  13.941  19.927   8.558
  244ETHO   H13 6007  14.038  20.063   8.617
  244ETHO    C2 6008  13.865  20.123   8.510
  244ETHO   H21 6009  13.932  20.146   8.425
  244ETHO   H23 6010  13.848  20.221   8.560
  245ETHO    O1 6011  13.748  20.067   8.454
  245ETHO    C1 6012  13.684  20.158   8.370
  245ETHO   H11 6013  13.653  20.246   8.431
  245ETHO   H13 6014  13.762  20.194   8.300
  245ETHO    C2 6015  13.574  20.086   8.285
  245ETHO   H21 6016  13.527  20.159   8.216
  245ETHO   H23 6017  13.498  20.041   8.352
  246ETHO    O1 6018  13.641  19.990   8.207
  246ETHO    C1 6019  13.552  19.918   8.114
  246ETHO   H11 6020  13.472  19.978   8.064
  246ETHO   H13 6021  13.497  19.853   8.185
  246ETHO    C2 6022  13.640  19.837   8.012
  246ETHO   H21 6023  13.567  19.758   7.982
  246ETHO   H23 6024  13.729  19.796   8.064
  247ETHO    O1 6025  13.681  19.917   7.897
  247ETHO    C1 6026  13.712  19.828   7.788
  247ETHO   H11 6027  13.778  19.743   7.814
  247ETHO   H13 6028  13.615  19.795   7.744
  247ETHO    C2 6029  13.786  19.896   7.666
  247ETHO   H21 6030  13.877  19.943   7.709
  247ETHO   H23 6031  13.823  19.816   7.598
  248ETHO    O1 6032  13.721  19.989   7.583
  248ETHO    C1 6033  13.667  20.102   7.651
  248ETHO   H11 6034  13.586  20.076   7.723
  248ETHO   H13 6035  13.751  20.149   7.706
  248ETHO    C2 6036  13.598  20.187   7.534
  248ETHO   H21 6037  13.671  20.205   7.452
  248ETHO   H23 6038  13.558  20.286   7.567
  249ETHO    O1 6039  13.491  20.112   7.476
  249ETHO    C1 6040  13.361  20.109   7.546
  249ETHO   H11 6041  13.382  20.045   7.635
  249ETHO   H13 6042  13.344  20.206   7.598
  249ETHO    C2 6043  13.260  20.054   7.453
  249ETHO   H21 6044  13.161  20.041   7.503
  249ETHO   H23 6045  13.288  19.950   7.426
  250ETHO    O1 6046  13.269  20.126   7.329
  250ETHO    C1 6047  13.181  20.238   7.327
  250ETHO   H11 6048  13.141  20.252   7.430
  250ETHO   H13 6049  13.224  20.337   7.298
  250ETHO    C2 6050  13.054  20.202   7.240
  250ETHO   H21 6051  13.075  20.141   7.149
  250ETHO   H23 6052  13.013  20.299   7.203
  251ETHO    O1 6053  12.943  20.138   7.311
  251ETHO    C1 6054  12.828  20.133   7.231
  251ETHO   H11 6055  12.859  20.074   7.141
  251ETHO   H13 6056  12.806  20.238   7.204
  251ETHO    C2 6057  12.709  20.065   7.296
  251ETHO   H21 6058  12.737  19.974   7.352
  251ETHO   H23 6059  12.637  20.031   7.217
  252ETHO    O1 6060  12.638  20.156   7.374
  252ETHO    C1 6061  12.554  20.242   7.298
  252ETHO   H11 6062  12.608  20.318   7.237
  252ETHO   H13 6063  12.477  20.200   7.229
  252ETHO    C2 6064  12.469  20.322   7.399
  252ETHO   H21 6065  12.452  20.418   7.345
  252ETHO   H23 6066  12.529  20.353   7.487
  253ETHO    O1 6067  12.349  20.258   7.437
  253ETHO    C1 6068  12.280  20.348   7.519
  253ETHO   H11 6069  12.246  20.430   7.453
  253ETHO   H13 6070  12.352  20.391   7.592
  253ETHO    C2 6071  12.172  20.268   7.599
  253ETHO   H21 6072  12.102  20.202   7.544
  253ETHO   H23 6073  12.106  20.345   7.647
  254ETHO    O1 6074  12.235  20.194   7.701
  254ETHO    C1 6075  12.135  20.122   7.785
  254ETHO   H11 6076  12.045  20.094   7.726
  254ETHO   H13 6077  12.179  20.025   7.815
  254ETHO    C2 6078  12.090  20.202   7.908
  254ETHO   H21 6079  11.997  20.161   7.952
  254ETHO   H23 6080  12.067  20.306   7.876
  255ETHO    O1 6081  12.191  20.198   8.003
  255ETHO    C1 6082  12.156  20.296   8.098
  255ETHO   H11 6083  12.057  20.263   8.137
  255ETHO   H13 6084  12.143  20.400   8.060
  255ETHO    C2 6085  12.246  20.309   8.222
  255ETHO   H21 6086  12.262  20.211   8.271
  255ETHO   H23 6087  12.197  20.384   8.289
  256ETHO    O1 6088  12.371  20.354   8.182
  256ETHO    C1 6089  12.464  20.341   8.293
  256ETHO   H11 6090  12.436  20.405   8.381
  256ETHO   H13 6091  12.470  20.233   8.315
  256ETHO    C2 6092  12.601  20.396   8.245
  256ETHO   H21 6093  12.665  20.405   8.336
  256ETHO   H23 6094  12.596  20.501   8.210
  257ETHO    O1 6095  12.669  20.307   8.152
  257ETHO    C1 6096  12.753  20.380   8.066
  257ETHO   H11 6097  12.821  20.443   8.127
  257ETHO   H13 6098  12.688  20.448   8.008
  257ETHO    C2 6099  12.844  20.290   7.979
  257ETHO   H21 6100  12.868  20.349   7.888
  257ETHO   H23 6101  12.785  20.199   7.954
  258ETHO    O1 6102  12.964  20.249   8.042
  258ETHO    C1 6103  13.080  20.287   7.966
  258ETHO   H11 6104  13.085  20.226   7.874
  258ETHO   H13 6105  13.069  20.394   7.939
  258ETHO    C2 6106  13.205  20.280   8.054
  258ETHO   H21 6107  13.298  20.283   7.993
  258ETHO   H23 6108  13.202  20.183   8.108
  259ETHO    O1 6109  13.195  20.392   8.145
  259ETHO    C1 6110  13.287  20.379   8.251
  259ETHO   H11 6111  13.249  20.451   8.328
  259ETHO   H13 6112  13.280  20.286   8.310
  259ETHO    C2 6113  13.424  20.425   8.210
  259ETHO   H21 6114  13.414  20.523   8.161
  259ETHO   H23 6115  13.472  20.351   8.142
  260ETHO    O1 6116  13.520  20.439   8.316
  260ETHO    C1 6117  13.643  20.486   8.253
  260ETHO   H11 6118  13.685  20.410   8.184
  260ETHO   H13 6119  13.616  20.572   8.187
  260ETHO    C2 6120  13.746  20.526   8.350
  260ETHO   H21 6121  13.834  20.578   8.308
  260ETHO   H23 6122  13.799  20.442   8.400
  261ETHO    O1 6123  13.693  20.605   8.456
  261ETHO    C1 6124  13.797  20.635   8.552
  261ETHO   H11 6125  13.847  20.537   8.570
  261ETHO   H13 6126  13.861  20.714   8.508
  261ETHO    C2 6127  13.741  20.681   8.689
  261ETHO   H21 6128  13.825  20.667   8.761
  261ETHO   H23 6129  13.657  20.611   8.712
  262ETHO    O1 6130  13.684  20.806   8.690
  262ETHO    C1 6131  13.786  20.902   8.689
  262ETHO   H11 6132  13.858  20.887   8.606
  262ETHO   H13 6133  13.839  20.899   8.786
  262ETHO    C2 6134  13.734  21.047   8.674
  262ETHO   H21 6135  13.810  21.123   8.703
  262ETHO   H23 6136  13.643  21.073   8.731
  263ETHO    O1 6137  13.684  21.060   8.538
  263ETHO    C1 6138  13.660  21.190   8.495
  263ETHO   H11 6139  13.670  21.257   8.584
  263ETHO   H13 6140  13.557  21.206   8.458
  263ETHO    C2 6141  13.750  21.218   8.373
  263ETHO   H21 6142  13.707  21.286   8.297
  263ETHO   H23 6143  13.749  21.121   8.319
  264ETHO    O1 6144  13.883  21.262   8.397
  264ETHO    C1 6145  13.966  21.211   8.293
  264ETHO   H11 6146  14.054  21.278   8.279
  264ETHO   H13 6147  13.910  21.196   8.198
  264ETHO    C2 6148  14.023  21.077   8.334
  264ETHO   H21 6149  14.094  21.038   8.258
  264ETHO   H23 6150  13.933  21.014   8.348
  265ETHO    O1 6151  14.092  21.083   8.457
  265ETHO    C1 6152  14.179  20.974   8.470
  265ETHO   H11 6153  14.142  20.883   8.418
  265ETHO   H13 6154  14.267  21.005   8.410
  265ETHO    C2 6155  14.223  20.940   8.617
  265ETHO   H21 6156  14.238  21.034   8.674
  265ETHO   H23 6157  14.320  20.886   8.609
  265ETHO    OZ 6158  14.131  20.855   8.685
  265ETHO   HZ1 6159  14.134  20.764   8.654
    1ETHO    O1 6160  15.671  19.273  14.895
    1ETHO   HO1 6161  15.749  19.327  14.879
    1ETHO    C1 6162  15.564  19.358  14.850
    1ETHO   H11 6163  15.496  19.294  14.790
    1ETHO   H13 6164  15.602  19.439  14.784
    1ETHO    C2 6165  15.488  19.423  14.974
    1ETHO   H21 6166  15.453  19.342  15.042
    1ETHO   H23 6167  15.403  19.478  14.927
    2ETHO    O1 6168  15.573  19.513  15.054
    2ETHO    C1 6169  15.494  19.598  15.133
    2ETHO   H11 6170  15.430  19.655  15.062
    2ETHO   H13 6171  15.417  19.538  15.187
    2ETHO    C2 6172  15.580  19.679  15.219
    2ETHO   H21 6173  15.656  19.626  15.280
    2ETHO   H23 6174  15.512  19.735  15.287
    3ETHO    O1 6175  15.633  19.786  15.140
    3ETHO    C1 6176  15.712  19.867  15.223
    3ETHO   H11 6177  15.775  19.804  15.290
    3ETHO   H13 6178  15.641  19.920  15.290
    3ETHO    C2 6179  15.795  19.976  15.153
    3ETHO   H21 6180  15.851  19.929  15.070
    3ETHO   H23 6181  15.876  20.012  15.220
    4ETHO    O1 6182  15.721  20.088  15.103
    4ETHO    C1 6183  15.760  20.110  14.967
    4ETHO   H11 6184  15.865  20.146  14.974
    4ETHO   H13 6185  15.767  20.011  14.918
    4ETHO    C2 6186  15.668  20.199  14.885
    4ETHO   H21 6187  15.576  20.139  14.871
    4ETHO   H23 6188  15.723  20.203  14.788
    5ETHO    O1 6189  15.647  20.332  14.927
    5ETHO    C1 6190  15.566  20.397  14.831
    5ETHO   H11 6191  15.601  20.352  14.736
    5ETHO   H13 6192  15.459  20.370  14.838
    5ETHO    C2 6193  15.595  20.551  14.820
    5ETHO   H21 6194  15.584  20.594  14.718
    5ETHO   H23 6195  15.698  20.570  14.857
    6ETHO    O1 6196  15.509  20.628  14.910
    6ETHO    C1 6197  15.537  20.774  14.891
    6ETHO   H11 6198  15.647  20.784  14.901
    6ETHO   H13 6199  15.510  20.804  14.787
    6ETHO    C2 6200  15.451  20.851  15.003
    6ETHO   H21 6201  15.493  20.950  15.032
    6ETHO   H23 6202  15.437  20.794  15.096
    7ETHO    O1 6203  15.325  20.884  14.965
    7ETHO    C1 6204  15.252  20.940  15.072
    7ETHO   H11 6205  15.265  20.875  15.161
    7ETHO   H13 6206  15.295  21.039  15.098
    7ETHO    C2 6207  15.101  20.950  15.054
    7ETHO   H21 6208  15.080  20.999  14.956
    7ETHO   H23 6209  15.067  21.011  15.141
    8ETHO    O1 6210  15.036  20.823  15.052
    8ETHO    C1 6211  14.914  20.830  15.119
    8ETHO   H11 6212  14.844  20.903  15.073
    8ETHO   H13 6213  14.946  20.861  15.221
    8ETHO    C2 6214  14.851  20.692  15.108
    8ETHO   H21 6215  14.825  20.668  15.003
    8ETHO   H23 6216  14.755  20.702  15.164
    9ETHO    O1 6217  14.924  20.579  15.168
    9ETHO    C1 6218  14.836  20.466  15.173
    9ETHO   H11 6219  14.738  20.483  15.223
    9ETHO   H13 6220  14.831  20.423  15.071
    9ETHO    C2 6221  14.890  20.358  15.269
    9ETHO   H21 6222  14.808  20.285  15.282
    9ETHO   H23 6223  14.908  20.413  15.363
   10ETHO    O1 6224  15.016  20.305  15.228
   10ETHO    C1 6225  15.064  20.210  15.325
   10ETHO   H11 6226  14.993  20.127  15.345
   10ETHO   H13 6227  15.071  20.263  15.422
   10ETHO    C2 6228  15.199  20.146  15.274
   10ETHO   H21 6229  15.225  20.078  15.359
   10ETHO   H23 6230  15.276  20.221  15.250
   11ETHO    O1 6231  15.178  20.067  15.165
   11ETHO    C1 6232  15.296  19.989  15.144
   11ETHO   H11 6233  15.382  20.053  15.116
   11ETHO   H13 6234  15.338  19.933  15.230
   11ETHO    C2 6235  15.273  19.887  15.040
   11ETHO   H21 6236  15.197  19.926  14.970
   11ETHO   H23 6237  15.366  19.862  14.985
   12ETHO    O1 6238  15.220  19.772  15.103
   12ETHO    C1 6239  15.154  19.684  15.013
   12ETHO   H11 6240  15.227  19.645  14.938
   12ETHO   H13 6241  15.077  19.745  14.961
   12ETHO    C2 6242  15.081  19.581  15.098
   12ETHO   H21 6243  15.148  19.540  15.177
   12ETHO   H23 6244  15.049  19.499  15.030
   13ETHO    O1 6245  14.963  19.635  15.167
   13ETHO    C1 6246  14.894  19.542  15.250
   13ETHO   H11 6247  14.970  19.470  15.288
   13ETHO   H13 6248  14.835  19.594  15.329
   13ETHO    C2 6249  14.796  19.449  15.182
   13ETHO   H21 6250  14.751  19.385  15.261
   13ETHO   H23 6251  14.836  19.380  15.106
   14ETHO    O1 6252  14.684  19.516  15.128
   14ETHO    C1 6253  14.581  19.428  15.100
   14ETHO   H11 6254  14.551  19.372  15.192
   14ETHO   H13 6255  14.623  19.350  15.032
   14ETHO    C2 6256  14.444  19.482  15.047
   14ETHO   H21 6257  14.392  19.405  14.987
   14ETHO   H23 6258  14.462  19.557  14.967
   15ETHO    O1 6259  14.363  19.530  15.155
   15ETHO    C1 6260  14.272  19.436  15.207
   15ETHO   H11 6261  14.190  19.420  15.134
   15ETHO   H13 6262  14.322  19.336  15.211
   15ETHO    C2 6263  14.207  19.473  15.337
   15ETHO   H21 6264  14.155  19.570  15.324
   15ETHO   H23 6265  14.120  19.406  15.358
   16ETHO    O1 6266  14.296  19.476  15.454
   16ETHO    C1 6267  14.267  19.590  15.542
   16ETHO   H11 6268  14.158  19.608  15.550
   16ETHO   H13 6269  14.301  19.566  15.645
   16ETHO    C2 6270  14.353  19.707  15.504
   16ETHO   H21 6271  14.283  19.788  15.475
   16ETHO   H23 6272  14.421  19.676  15.422
   17ETHO    O1 6273  14.430  19.747  15.610
   17ETHO    C1 6274  14.527  19.846  15.578
   17ETHO   H11 6275  14.605  19.811  15.507
   17ETHO   H13 6276  14.491  19.944  15.539
   17ETHO    C2 6277  14.601  19.891  15.705
   17ETHO   H21 6278  14.696  19.936  15.670
   17ETHO   H23 6279  14.628  19.800  15.763
   18ETHO    O1 6280  14.525  19.986  15.789
   18ETHO    C1 6281  14.583  20.007  15.914
   18ETHO   H11 6282  14.597  19.911  15.967
   18ETHO   H13 6283  14.682  20.050  15.887
   18ETHO    C2 6284  14.504  20.115  15.987
   18ETHO   H21 6285  14.487  20.196  15.913
   18ETHO   H23 6286  14.568  20.159  16.067
   19ETHO    O1 6287  14.371  20.088  16.045
   19ETHO    C1 6288  14.323  20.212  16.090
   19ETHO   H11 6289  14.325  20.286  16.007
   19ETHO   H13 6290  14.380  20.244  16.180
   19ETHO    C2 6291  14.171  20.205  16.135
   19ETHO   H21 6292  14.171  20.152  16.232
   19ETHO   H23 6293  14.119  20.149  16.054
   20ETHO    O1 6294  14.128  20.342  16.154
   20ETHO    C1 6295  14.007  20.339  16.226
   20ETHO   H11 6296  13.930  20.306  16.154
   20ETHO   H13 6297  14.017  20.273  16.315
   20ETHO    C2 6298  13.961  20.480  16.259
   20ETHO   H21 6299  13.856  20.471  16.294
   20ETHO   H23 6300  13.954  20.532  16.161
   21ETHO    O1 6301  14.039  20.549  16.355
   21ETHO    C1 6302  14.015  20.684  16.355
   21ETHO   H11 6303  13.908  20.703  16.334
   21ETHO   H13 6304  14.065  20.729  16.267
   21ETHO    C2 6305  14.075  20.760  16.472
   21ETHO   H21 6306  14.080  20.868  16.446
   21ETHO   H23 6307  14.183  20.737  16.483
   22ETHO    O1 6308  14.012  20.739  16.596
   22ETHO    C1 6309  14.086  20.787  16.706
   22ETHO   H11 6310  14.038  20.754  16.800
   22ETHO   H13 6311  14.196  20.767  16.705
   22ETHO    C2 6312  14.073  20.940  16.724
   22ETHO   H21 6313  14.144  20.973  16.803
   22ETHO   H23 6314  14.099  20.994  16.630
   23ETHO    O1 6315  13.938  20.958  16.748
   23ETHO    C1 6316  13.908  21.082  16.806
   23ETHO   H11 6317  13.998  21.122  16.858
   23ETHO   H13 6318  13.824  21.076  16.879
   23ETHO    C2 6319  13.866  21.198  16.714
   23ETHO   H21 6320  13.938  21.192  16.630
   23ETHO   H23 6321  13.870  21.298  16.763
   24ETHO    O1 6322  13.740  21.175  16.652
   24ETHO    C1 6323  13.701  21.292  16.584
   24ETHO   H11 6324  13.790  21.352  16.556
   24ETHO   H13 6325  13.670  21.250  16.485
   24ETHO    C2 6326  13.579  21.371  16.631
   24ETHO   H21 6327  13.493  21.305  16.656
   24ETHO   H23 6328  13.526  21.436  16.558
   25ETHO    O1 6329  13.616  21.447  16.751
   25ETHO    C1 6330  13.676  21.573  16.713
   25ETHO   H11 6331  13.591  21.631  16.673
   25ETHO   H13 6332  13.753  21.547  16.638
   25ETHO    C2 6333  13.743  21.658  16.827
   25ETHO   H21 6334  13.786  21.751  16.783
   25ETHO   H23 6335  13.821  21.591  16.868
   26ETHO    O1 6336  13.656  21.682  16.931
   26ETHO    C1 6337  13.734  21.723  17.048
   26ETHO   H11 6338  13.667  21.719  17.136
   26ETHO   H13 6339  13.811  21.648  17.075
   26ETHO    C2 6340  13.796  21.868  17.048
   26ETHO   H21 6341  13.728  21.936  16.994
   26ETHO   H23 6342  13.896  21.861  16.999
   27ETHO    O1 6343  13.815  21.921  17.180
   27ETHO    C1 6344  13.951  21.880  17.225
   27ETHO   H11 6345  14.044  21.902  17.168
   27ETHO   H13 6346  13.940  21.770  17.236
   27ETHO    C2 6347  13.964  21.951  17.362
   27ETHO   H21 6348  13.929  22.056  17.350
   27ETHO   H23 6349  14.069  21.951  17.399
   28ETHO    O1 6350  13.884  21.902  17.475
   28ETHO    C1 6351  13.947  21.779  17.525
   28ETHO   H11 6352  14.020  21.735  17.453
   28ETHO   H13 6353  14.000  21.807  17.619
   28ETHO    C2 6354  13.845  21.675  17.567
   28ETHO   H21 6355  13.783  21.712  17.651
   28ETHO   H23 6356  13.911  21.597  17.609
   29ETHO    O1 6357  13.757  21.623  17.469
   29ETHO    C1 6358  13.814  21.547  17.372
   29ETHO   H11 6359  13.900  21.482  17.398
   29ETHO   H13 6360  13.840  21.610  17.285
   29ETHO    C2 6361  13.711  21.446  17.322
   29ETHO   H21 6362  13.609  21.486  17.307
   29ETHO   H23 6363  13.701  21.364  17.396
   30ETHO    O1 6364  13.751  21.379  17.206
   30ETHO    C1 6365  13.660  21.284  17.153
   30ETHO   H11 6366  13.558  21.311  17.186
   30ETHO   H13 6367  13.663  21.295  17.043
   30ETHO    C2 6368  13.685  21.141  17.195
   30ETHO   H21 6369  13.604  21.073  17.163
   30ETHO   H23 6370  13.691  21.148  17.306
   31ETHO    O1 6371  13.816  21.108  17.148
   31ETHO    C1 6372  13.868  20.997  17.215
   31ETHO   H11 6373  13.871  21.029  17.321
   31ETHO   H13 6374  13.806  20.905  17.207
   31ETHO    C2 6375  14.005  20.970  17.160
   31ETHO   H21 6376  13.991  20.952  17.051
   31ETHO   H23 6377  14.037  20.867  17.188
   32ETHO    O1 6378  14.107  21.062  17.194
   32ETHO    C1 6379  14.226  21.049  17.114
   32ETHO   H11 6380  14.250  20.941  17.109
   32ETHO   H13 6381  14.202  21.075  17.009
   32ETHO    C2 6382  14.355  21.123  17.164
   32ETHO   H21 6383  14.329  21.231  17.166
   32ETHO   H23 6384  14.437  21.120  17.089
   33ETHO    O1 6385  14.393  21.080  17.288
   33ETHO    C1 6386  14.484  21.167  17.350
   33ETHO   H11 6387  14.581  21.150  17.300
   33ETHO   H13 6388  14.466  21.277  17.359
   33ETHO    C2 6389  14.505  21.129  17.501
   33ETHO   H21 6390  14.599  21.163  17.550
   33ETHO   H23 6391  14.514  21.019  17.509
   34ETHO    O1 6392  14.392  21.174  17.571
   34ETHO    C1 6393  14.377  21.107  17.694
   34ETHO   H11 6394  14.478  21.074  17.727
   34ETHO   H13 6395  14.332  21.009  17.669
   34ETHO    C2 6396  14.302  21.176  17.812
   34ETHO   H21 6397  14.276  21.093  17.882
   34ETHO   H23 6398  14.205  21.211  17.772
   35ETHO    O1 6399  14.375  21.278  17.875
   35ETHO    C1 6400  14.292  21.361  17.951
   35ETHO   H11 6401  14.207  21.394  17.887
   35ETHO   H13 6402  14.249  21.292  18.026
   35ETHO    C2 6403  14.372  21.476  18.012
   35ETHO   H21 6404  14.305  21.550  18.061
   35ETHO   H23 6405  14.420  21.529  17.928
   36ETHO    O1 6406  14.480  21.431  18.095
   36ETHO    C1 6407  14.547  21.544  18.141
   36ETHO   H11 6408  14.489  21.587  18.225
   36ETHO   H13 6409  14.559  21.615  18.056
   36ETHO    C2 6410  14.695  21.505  18.184
   36ETHO   H21 6411  14.686  21.435  18.271
   36ETHO   H23 6412  14.748  21.591  18.229
   37ETHO    O1 6413  14.774  21.470  18.074
   37ETHO    C1 6414  14.897  21.406  18.110
   37ETHO   H11 6415  14.962  21.477  18.167
   37ETHO   H13 6416  14.877  21.314  18.169
   37ETHO    C2 6417  14.971  21.373  17.981
   37ETHO   H21 6418  15.067  21.325  18.008
   37ETHO   H23 6419  14.989  21.473  17.936
   38ETHO    O1 6420  14.894  21.285  17.895
   38ETHO    C1 6421  14.975  21.245  17.788
   38ETHO   H11 6422  15.051  21.170  17.820
   38ETHO   H13 6423  15.033  21.331  17.749
   38ETHO    C2 6424  14.883  21.187  17.677
   38ETHO   H21 6425  14.800  21.260  17.672
   38ETHO   H23 6426  14.846  21.089  17.715
   39ETHO    O1 6427  14.957  21.179  17.553
   39ETHO    C1 6428  14.873  21.167  17.441
   39ETHO   H11 6429  14.812  21.076  17.458
   39ETHO   H13 6430  14.803  21.253  17.453
   39ETHO    C2 6431  14.941  21.154  17.305
   39ETHO   H21 6432  14.858  21.129  17.236
   39ETHO   H23 6433  15.015  21.071  17.305
   40ETHO    O1 6434  14.994  21.279  17.257
   40ETHO    C1 6435  15.068  21.243  17.141
   40ETHO   H11 6436  14.995  21.203  17.068
   40ETHO   H13 6437  15.136  21.157  17.159
   40ETHO    C2 6438  15.156  21.359  17.090
   40ETHO   H21 6439  15.207  21.314  17.002
   40ETHO   H23 6440  15.234  21.385  17.165
   41ETHO    O1 6441  15.097  21.473  17.024
   41ETHO    C1 6442  15.196  21.570  16.978
   41ETHO   H11 6443  15.262  21.582  17.067
   41ETHO   H13 6444  15.245  21.530  16.887
   41ETHO    C2 6445  15.119  21.702  16.940
   41ETHO   H21 6446  15.180  21.782  16.892
   41ETHO   H23 6447  15.073  21.737  17.034
   42ETHO    O1 6448  15.020  21.671  16.850
   42ETHO    C1 6449  14.933  21.780  16.828
   42ETHO   H11 6450  14.881  21.796  16.925
   42ETHO   H13 6451  14.992  21.872  16.814
   42ETHO    C2 6452  14.828  21.756  16.727
   42ETHO   H21 6453  14.761  21.843  16.709
   42ETHO   H23 6454  14.762  21.678  16.770
   43ETHO    O1 6455  14.873  21.706  16.603
   43ETHO    C1 6456  14.763  21.667  16.517
   43ETHO   H11 6457  14.713  21.581  16.566
   43ETHO   H13 6458  14.697  21.756  16.506
   43ETHO    C2 6459  14.796  21.626  16.373
   43ETHO   H21 6460  14.809  21.719  16.314
   43ETHO   H23 6461  14.700  21.575  16.348
   44ETHO    O1 6462  14.913  21.544  16.374
   44ETHO    C1 6463  14.927  21.492  16.246
   44ETHO   H11 6464  14.845  21.418  16.234
   44ETHO   H13 6465  14.914  21.562  16.161
   44ETHO    C2 6466  15.064  21.417  16.248
   44ETHO   H21 6467  15.054  21.333  16.320
   44ETHO   H23 6468  15.148  21.487  16.267
   45ETHO    O1 6469  15.081  21.340  16.125
   45ETHO    C1 6470  15.161  21.226  16.136
   45ETHO   H11 6471  15.131  21.165  16.224
   45ETHO   H13 6472  15.269  21.249  16.144
   45ETHO    C2 6473  15.140  21.142  16.007
   45ETHO   H21 6474  15.244  21.126  15.971
   45ETHO   H23 6475  15.081  21.200  15.933
   46ETHO    O1 6476  15.077  21.023  16.051
   46ETHO    C1 6477  15.052  20.937  15.946
   46ETHO   H11 6478  14.983  20.982  15.871
   46ETHO   H13 6479  15.153  20.919  15.903
   46ETHO    C2 6480  14.996  20.798  15.980
   46ETHO   H21 6481  15.072  20.739  16.035
   46ETHO   H23 6482  14.966  20.743  15.888
   47ETHO    O1 6483  14.878  20.814  16.061
   47ETHO    C1 6484  14.819  20.688  16.086
   47ETHO   H11 6485  14.881  20.632  16.160
   47ETHO   H13 6486  14.807  20.632  15.991
   47ETHO    C2 6487  14.679  20.699  16.152
   47ETHO   H21 6488  14.673  20.788  16.219
   47ETHO   H23 6489  14.650  20.606  16.206
   48ETHO    O1 6490  14.568  20.717  16.055
   48ETHO    C1 6491  14.445  20.705  16.128
   48ETHO   H11 6492  14.368  20.691  16.049
   48ETHO   H13 6493  14.449  20.621  16.201
   48ETHO    C2 6494  14.406  20.832  16.197
   48ETHO   H21 6495  14.418  20.910  16.119
   48ETHO   H23 6496  14.300  20.822  16.230
   49ETHO    O1 6497  14.473  20.860  16.322
   49ETHO    C1 6498  14.416  20.968  16.387
   49ETHO   H11 6499  14.313  20.931  16.410
   49ETHO   H13 6500  14.396  21.052  16.318
   49ETHO    C2 6501  14.472  21.008  16.523
   49ETHO   H21 6502  14.406  21.091  16.555
   49ETHO   H23 6503  14.576  21.047  16.520
   50ETHO    O1 6504  14.463  20.905  16.619
   50ETHO    C1 6505  14.449  20.951  16.754
   50ETHO   H11 6506  14.524  21.030  16.772
   50ETHO   H13 6507  14.340  20.974  16.761
   50ETHO    C2 6508  14.481  20.846  16.861
   50ETHO   H21 6509  14.492  20.891  16.963
   50ETHO   H23 6510  14.570  20.788  16.829
   51ETHO    O1 6511  14.374  20.748  16.869
   51ETHO    C1 6512  14.421  20.624  16.925
   51ETHO   H11 6513  14.426  20.634  17.035
   51ETHO   H13 6514  14.523  20.601  16.887
   51ETHO    C2 6515  14.324  20.514  16.888
   51ETHO   H21 6516  14.324  20.497  16.778
   51ETHO   H23 6517  14.220  20.537  16.922
   52ETHO    O1 6518  14.374  20.399  16.960
   52ETHO    C1 6519  14.324  20.275  16.907
   52ETHO   H11 6520  14.214  20.286  16.895
   52ETHO   H13 6521  14.365  20.270  16.804
   52ETHO    C2 6522  14.365  20.150  16.981
   52ETHO   H21 6523  14.305  20.070  16.933
   52ETHO   H23 6524  14.342  20.162  17.089
   53ETHO    O1 6525  14.506  20.124  16.962
   53ETHO    C1 6526  14.549  20.020  17.047
   53ETHO   H11 6527  14.560  20.061  17.149
   53ETHO   H13 6528  14.480  19.932  17.051
   53ETHO    C2 6529  14.688  19.984  16.998
   53ETHO   H21 6530  14.680  19.969  16.888
   53ETHO   H23 6531  14.704  19.886  17.049
   54ETHO    O1 6532  14.787  20.076  17.034
   54ETHO    C1 6533  14.923  20.034  16.993
   54ETHO   H11 6534  14.952  19.946  17.056
   54ETHO   H13 6535  14.927  20.007  16.886
   54ETHO    C2 6536  15.026  20.147  17.002
   54ETHO   H21 6537  14.978  20.241  16.969
   54ETHO   H23 6538  15.108  20.117  16.932
   55ETHO    O1 6539  15.071  20.156  17.133
   55ETHO    C1 6540  15.156  20.272  17.145
   55ETHO   H11 6541  15.109  20.360  17.096
   55ETHO   H13 6542  15.164  20.297  17.253
   55ETHO    C2 6543  15.298  20.257  17.091
   55ETHO   H21 6544  15.290  20.203  16.994
   55ETHO   H23 6545  15.341  20.353  17.056
   56ETHO    O1 6546  15.386  20.194  17.193
   56ETHO    C1 6547  15.494  20.122  17.128
   56ETHO   H11 6548  15.538  20.195  17.057
   56ETHO   H13 6549  15.468  20.031  17.071
   56ETHO    C2 6550  15.608  20.091  17.224
   56ETHO   H21 6551  15.648  20.181  17.275
   56ETHO   H23 6552  15.695  20.047  17.170
   57ETHO    O1 6553  15.564  19.995  17.318
   57ETHO    C1 6554  15.661  19.970  17.416
   57ETHO   H11 6555  15.714  19.875  17.394
   57ETHO   H13 6556  15.740  20.048  17.409
   57ETHO    C2 6557  15.598  19.978  17.555
   57ETHO   H21 6558  15.562  20.083  17.547
   57ETHO   H23 6559  15.670  19.975  17.639
   58ETHO    O1 6560  15.488  19.880  17.579
   58ETHO    C1 6561  15.455  19.873  17.718
   58ETHO   H11 6562  15.350  19.838  17.719
   58ETHO   H13 6563  15.468  19.967  17.776
   58ETHO    C2 6564  15.525  19.755  17.788
   58ETHO   H21 6565  15.509  19.656  17.740
   58ETHO   H23 6566  15.480  19.754  17.889
   59ETHO    O1 6567  15.653  19.790  17.809
   59ETHO    C1 6568  15.735  19.686  17.867
   59ETHO   H11 6569  15.702  19.658  17.969
   59ETHO   H13 6570  15.711  19.593  17.812
   59ETHO    C2 6571  15.888  19.712  17.866
   59ETHO   H21 6572  15.919  19.762  17.771
   59ETHO   H23 6573  15.944  19.617  17.879
   60ETHO    O1 6574  15.921  19.799  17.971
   60ETHO    C1 6575  16.064  19.822  17.971
   60ETHO   H11 6576  16.102  19.855  17.872
   60ETHO   H13 6577  16.121  19.728  17.993
   60ETHO    C2 6578  16.093  19.928  18.083
   60ETHO   H21 6579  16.199  19.949  18.109
   60ETHO   H23 6580  16.049  19.888  18.177
   61ETHO    O1 6581  16.036  20.053  18.049
   61ETHO    C1 6582  16.046  20.147  18.150
   61ETHO   H11 6583  16.003  20.109  18.245
   61ETHO   H13 6584  16.152  20.179  18.154
   61ETHO    C2 6585  15.967  20.273  18.108
   61ETHO   H21 6586  15.973  20.350  18.188
   61ETHO   H23 6587  15.863  20.242  18.083
   62ETHO    O1 6588  16.030  20.332  17.992
   62ETHO    C1 6589  15.993  20.471  17.972
   62ETHO   H11 6590  16.033  20.530  18.057
   62ETHO   H13 6591  15.882  20.479  17.973
   62ETHO    C2 6592  16.052  20.533  17.843
   62ETHO   H21 6593  16.152  20.496  17.811
   62ETHO   H23 6594  16.063  20.643  17.850
   63ETHO    O1 6595  15.966  20.519  17.734
   63ETHO    C1 6596  16.000  20.601  17.628
   63ETHO   H11 6597  15.951  20.699  17.646
   63ETHO   H13 6598  16.110  20.614  17.625
   63ETHO    C2 6599  15.940  20.547  17.503
   63ETHO   H21 6600  15.971  20.442  17.490
   63ETHO   H23 6601  15.968  20.619  17.423
   64ETHO    O1 6602  15.799  20.546  17.498
   64ETHO    C1 6603  15.750  20.508  17.367
   64ETHO   H11 6604  15.737  20.398  17.366
   64ETHO   H13 6605  15.832  20.539  17.299
   64ETHO    C2 6606  15.618  20.565  17.316
   64ETHO   H21 6607  15.533  20.555  17.387
   64ETHO   H23 6608  15.613  20.504  17.223
   65ETHO    O1 6609  15.635  20.701  17.284
   65ETHO    C1 6610  15.518  20.748  17.228
   65ETHO   H11 6611  15.440  20.669  17.239
   65ETHO   H13 6612  15.478  20.840  17.276
   65ETHO    C2 6613  15.537  20.769  17.078
   65ETHO   H21 6614  15.431  20.770  17.045
   65ETHO   H23 6615  15.573  20.673  17.035
   66ETHO    O1 6616  15.619  20.883  17.039
   66ETHO    C1 6617  15.654  20.874  16.902
   66ETHO   H11 6618  15.562  20.875  16.840
   66ETHO   H13 6619  15.718  20.784  16.889
   66ETHO    C2 6620  15.737  20.998  16.865
   66ETHO   H21 6621  15.797  20.968  16.776
   66ETHO   H23 6622  15.804  21.032  16.947
   67ETHO    O1 6623  15.650  21.111  16.831
   67ETHO    C1 6624  15.734  21.216  16.792
   67ETHO   H11 6625  15.799  21.250  16.875
   67ETHO   H13 6626  15.794  21.188  16.703
   67ETHO    C2 6627  15.638  21.335  16.767
   67ETHO   H21 6628  15.566  21.350  16.851
   67ETHO   H23 6629  15.586  21.324  16.669
   68ETHO    O1 6630  15.714  21.455  16.765
   68ETHO    C1 6631  15.631  21.563  16.729
   68ETHO   H11 6632  15.603  21.557  16.621
   68ETHO   H13 6633  15.539  21.571  16.790
   68ETHO    C2 6634  15.722  21.685  16.751
   68ETHO   H21 6635  15.661  21.773  16.719
   68ETHO   H23 6636  15.811  21.698  16.686
   69ETHO    O1 6637  15.739  21.694  16.893
   69ETHO    C1 6638  15.851  21.779  16.934
   69ETHO   H11 6639  15.945  21.756  16.880
   69ETHO   H13 6640  15.823  21.879  16.894
   69ETHO    C2 6641  15.870  21.779  17.085
   69ETHO   H21 6642  15.768  21.784  17.129
   69ETHO   H23 6643  15.941  21.859  17.116
   70ETHO    O1 6644  15.912  21.647  17.130
   70ETHO    C1 6645  15.942  21.639  17.268
   70ETHO   H11 6646  15.986  21.735  17.303
   70ETHO   H13 6647  15.847  21.632  17.325
   70ETHO    C2 6648  16.021  21.514  17.306
   70ETHO   H21 6649  15.972  21.422  17.267
   70ETHO   H23 6650  16.026  21.510  17.416
   71ETHO    O1 6651  16.157  21.515  17.263
   71ETHO    C1 6652  16.218  21.390  17.275
   71ETHO   H11 6653  16.276  21.365  17.184
   71ETHO   H13 6654  16.141  21.311  17.282
   71ETHO    C2 6655  16.314  21.388  17.397
   71ETHO   H21 6656  16.403  21.440  17.355
   71ETHO   H23 6657  16.341  21.282  17.418
   72ETHO    O1 6658  16.261  21.442  17.518
   72ETHO    C1 6659  16.176  21.347  17.583
   72ETHO   H11 6660  16.116  21.290  17.509
   72ETHO   H13 6661  16.249  21.275  17.625
   72ETHO    C2 6662  16.096  21.410  17.695
   72ETHO   H21 6663  16.168  21.470  17.757
   72ETHO   H23 6664  16.054  21.332  17.762
   73ETHO    O1 6665  15.983  21.489  17.655
   73ETHO    C1 6666  15.940  21.572  17.753
   73ETHO   H11 6667  16.033  21.627  17.779
   73ETHO   H13 6668  15.903  21.514  17.840
   73ETHO    C2 6669  15.828  21.672  17.704
   73ETHO   H21 6670  15.756  21.708  17.780
   73ETHO   H23 6671  15.762  21.605  17.646
   74ETHO    O1 6672  15.873  21.785  17.626
   74ETHO    C1 6673  15.763  21.851  17.551
   74ETHO   H11 6674  15.719  21.782  17.477
   74ETHO   H13 6675  15.689  21.880  17.629
   74ETHO    C2 6676  15.822  21.978  17.496
   74ETHO   H21 6677  15.892  22.022  17.570
   74ETHO   H23 6678  15.740  22.053  17.488
   75ETHO    O1 6679  15.897  21.981  17.377
   75ETHO    C1 6680  15.923  22.115  17.330
   75ETHO   H11 6681  15.946  22.181  17.417
   75ETHO   H13 6682  15.839  22.155  17.270
   75ETHO    C2 6683  16.047  22.135  17.242
   75ETHO   H21 6684  16.142  22.096  17.286
   75ETHO   H23 6685  16.068  22.244  17.242
   76ETHO    O1 6686  16.036  22.091  17.103
   76ETHO    C1 6687  16.157  22.124  17.038
   76ETHO   H11 6688  16.164  22.235  17.029
   76ETHO   H13 6689  16.246  22.078  17.086
   76ETHO    C2 6690  16.166  22.048  16.906
   76ETHO   H21 6691  16.149  21.939  16.918
   76ETHO   H23 6692  16.266  22.068  16.864
   77ETHO    O1 6693  16.066  22.092  16.808
   77ETHO    C1 6694  16.096  22.027  16.679
   77ETHO   H11 6695  16.091  21.916  16.682
   77ETHO   H13 6696  16.198  22.057  16.649
   77ETHO    C2 6697  15.996  22.067  16.568
   77ETHO   H21 6698  16.051  22.052  16.472
   77ETHO   H23 6699  15.986  22.176  16.582
   78ETHO    O1 6700  15.875  21.987  16.572
   78ETHO    C1 6701  15.768  22.056  16.504
   78ETHO   H11 6702  15.756  22.151  16.561
   78ETHO   H13 6703  15.798  22.090  16.403
   78ETHO    C2 6704  15.627  21.992  16.511
   78ETHO   H21 6705  15.549  22.067  16.483
   78ETHO   H23 6706  15.597  21.958  16.612
   79ETHO    O1 6707  15.626  21.887  16.420
   79ETHO    C1 6708  15.505  21.812  16.443
   79ETHO   H11 6709  15.492  21.764  16.543
   79ETHO   H13 6710  15.413  21.873  16.429
   79ETHO    C2 6711  15.505  21.683  16.347
   79ETHO   H21 6712  15.525  21.722  16.245
   79ETHO   H23 6713  15.403  21.644  16.367
   80ETHO    O1 6714  15.597  21.579  16.377
   80ETHO    C1 6715  15.588  21.469  16.287
   80ETHO   H11 6716  15.626  21.495  16.186
   80ETHO   H13 6717  15.665  21.398  16.326
   80ETHO    C2 6718  15.452  21.393  16.268
   80ETHO   H21 6719  15.458  21.329  16.178
   80ETHO   H23 6720  15.370  21.465  16.248
   81ETHO    O1 6721  15.414  21.314  16.378
   81ETHO    C1 6722  15.463  21.179  16.365
   81ETHO   H11 6723  15.450  21.131  16.266
   81ETHO   H13 6724  15.571  21.173  16.391
   81ETHO    C2 6725  15.379  21.088  16.453
   81ETHO   H21 6726  15.436  20.996  16.476
   81ETHO   H23 6727  15.373  21.141  16.550
   82ETHO    O1 6728  15.253  21.050  16.390
   82ETHO    C1 6729  15.189  20.946  16.458
   82ETHO   H11 6730  15.213  20.962  16.565
   82ETHO   H13 6731  15.227  20.848  16.423
   82ETHO    C2 6732  15.041  20.922  16.420
   82ETHO   H21 6733  15.029  20.905  16.311
   82ETHO   H23 6734  14.997  21.021  16.446
   83ETHO    O1 6735  14.989  20.822  16.501
   83ETHO    C1 6736  14.858  20.799  16.462
   83ETHO   H11 6737  14.799  20.890  16.439
   83ETHO   H13 6738  14.862  20.753  16.361
   83ETHO    C2 6739  14.787  20.704  16.567
   83ETHO   H21 6740  14.677  20.699  16.549
   83ETHO   H23 6741  14.811  20.749  16.665
   84ETHO    O1 6742  14.838  20.569  16.578
   84ETHO    C1 6743  14.755  20.491  16.661
   84ETHO   H11 6744  14.662  20.477  16.602
   84ETHO   H13 6745  14.739  20.544  16.757
   84ETHO    C2 6746  14.795  20.346  16.689
   84ETHO   H21 6747  14.733  20.326  16.779
   84ETHO   H23 6748  14.900  20.341  16.725
   85ETHO    O1 6749  14.757  20.247  16.591
   85ETHO    C1 6750  14.788  20.118  16.644
   85ETHO   H11 6751  14.886  20.113  16.695
   85ETHO   H13 6752  14.708  20.089  16.716
   85ETHO    C2 6753  14.783  20.012  16.533
   85ETHO   H21 6754  14.688  20.023  16.477
   85ETHO   H23 6755  14.771  19.908  16.571
   86ETHO    O1 6756  14.899  20.013  16.446
   86ETHO    C1 6757  15.001  19.922  16.492
   86ETHO   H11 6758  15.013  19.918  16.602
   86ETHO   H13 6759  15.098  19.946  16.445
   86ETHO    C2 6760  14.971  19.775  16.448
   86ETHO   H21 6761  14.869  19.740  16.475
   86ETHO   H23 6762  15.040  19.702  16.495
   87ETHO    O1 6763  15.003  19.758  16.310
   87ETHO    C1 6764  14.994  19.621  16.275
   87ETHO   H11 6765  15.061  19.559  16.338
   87ETHO   H13 6766  14.887  19.595  16.291
   87ETHO    C2 6767  15.040  19.594  16.127
   87ETHO   H21 6768  15.066  19.486  16.137
   87ETHO   H23 6769  15.133  19.650  16.106
   88ETHO    O1 6770  14.942  19.620  16.025
   88ETHO    C1 6771  15.003  19.595  15.896
   88ETHO   H11 6772  15.032  19.487  15.899
   88ETHO   H13 6773  15.099  19.650  15.886
   88ETHO    C2 6774  14.917  19.624  15.774
   88ETHO   H21 6775  14.991  19.646  15.694
   88ETHO   H23 6776  14.867  19.721  15.795
   89ETHO    O1 6777  14.819  19.524  15.741
   89ETHO    C1 6778  14.762  19.550  15.605
   89ETHO   H11 6779  14.729  19.656  15.605
   89ETHO   H13 6780  14.844  19.542  15.530
   89ETHO    C2 6781  14.644  19.456  15.576
   89ETHO   H21 6782  14.597  19.497  15.485
   89ETHO   H23 6783  14.572  19.459  15.660
   90ETHO    O1 6784  14.682  19.325  15.546
   90ETHO    C1 6785  14.568  19.245  15.514
   90ETHO   H11 6786  14.496  19.249  15.598
   90ETHO   H13 6787  14.517  19.297  15.430
   90ETHO    C2 6788  14.615  19.116  15.455
   90ETHO   H21 6789  14.665  19.057  15.534
   90ETHO   H23 6790  14.688  19.136  15.374
   91ETHO    O1 6791  14.509  19.034  15.408
   91ETHO    C1 6792  14.559  18.898  15.388
   91ETHO   H11 6793  14.577  18.880  15.280
   91ETHO   H13 6794  14.646  18.876  15.454
   91ETHO    C2 6795  14.432  18.812  15.435
   91ETHO   H21 6796  14.334  18.861  15.416
   91ETHO   H23 6797  14.435  18.801  15.545
   92ETHO    O1 6798  14.429  18.676  15.375
   92ETHO    C1 6799  14.497  18.589  15.462
   92ETHO   H11 6800  14.598  18.633  15.480
   92ETHO   H13 6801  14.442  18.575  15.557
   92ETHO    C2 6802  14.504  18.442  15.415
   92ETHO   H21 6803  14.589  18.397  15.471
   92ETHO   H23 6804  14.518  18.438  15.305
   93ETHO    O1 6805  14.395  18.361  15.445
   93ETHO    C1 6806  14.398  18.227  15.386
   93ETHO   H11 6807  14.487  18.172  15.424
   93ETHO   H13 6808  14.410  18.237  15.276
   93ETHO    C2 6809  14.271  18.147  15.422
   93ETHO   H21 6810  14.180  18.186  15.372
   93ETHO   H23 6811  14.248  18.141  15.531
   94ETHO    O1 6812  14.295  18.009  15.384
   94ETHO    C1 6813  14.183  17.919  15.403
   94ETHO   H11 6814  14.182  17.890  15.510
   94ETHO   H13 6815  14.092  17.978  15.379
   94ETHO    C2 6816  14.195  17.789  15.321
   94ETHO   H21 6817  14.129  17.710  15.362
   94ETHO   H23 6818  14.295  17.743  15.330
   95ETHO    O1 6819  14.173  17.807  15.183
   95ETHO    C1 6820  14.037  17.828  15.152
   95ETHO   H11 6821  14.022  17.937  15.136
   95ETHO   H13 6822  13.971  17.792  15.234
   95ETHO    C2 6823  13.993  17.763  15.020
   95ETHO   H21 6824  14.065  17.786  14.939
   95ETHO   H23 6825  13.890  17.783  14.982
   96ETHO    O1 6826  14.012  17.625  15.033
   96ETHO    C1 6827  13.948  17.551  14.920
   96ETHO   H11 6828  13.842  17.583  14.910
   96ETHO   H13 6829  14.000  17.575  14.825
   96ETHO    C2 6830  13.957  17.386  14.925
   96ETHO   H21 6831  14.048  17.364  14.985
   96ETHO   H23 6832  13.973  17.350  14.822
   97ETHO    O1 6833  13.841  17.332  14.993
   97ETHO    C1 6834  13.747  17.273  14.902
   97ETHO   H11 6835  13.798  17.189  14.850
   97ETHO   H13 6836  13.728  17.348  14.823
   97ETHO    C2 6837  13.627  17.215  14.965
   97ETHO   H21 6838  13.554  17.195  14.884
   97ETHO   H23 6839  13.584  17.287  15.037
   98ETHO    O1 6840  13.642  17.090  15.026
   98ETHO    C1 6841  13.510  17.043  15.075
   98ETHO   H11 6842  13.513  17.037  15.186
   98ETHO   H13 6843  13.423  17.109  15.053
   98ETHO    C2 6844  13.487  16.895  15.038
   98ETHO   H21 6845  13.408  16.860  15.107
   98ETHO   H23 6846  13.579  16.834  15.054
   99ETHO    O1 6847  13.437  16.898  14.908
   99ETHO    C1 6848  13.439  16.758  14.862
   99ETHO   H11 6849  13.363  16.701  14.919
   99ETHO   H13 6850  13.541  16.720  14.884
   99ETHO    C2 6851  13.412  16.748  14.708
   99ETHO   H21 6852  13.473  16.834  14.672
   99ETHO   H23 6853  13.308  16.761  14.674
  100ETHO    O1 6854  13.456  16.625  14.657
  100ETHO    C1 6855  13.483  16.628  14.518
  100ETHO   H11 6856  13.386  16.647  14.468
  100ETHO   H13 6857  13.550  16.714  14.497
  100ETHO    C2 6858  13.539  16.495  14.463
  100ETHO   H21 6859  13.504  16.502  14.357
  100ETHO   H23 6860  13.483  16.408  14.505
  101PROX    O1 6861  13.686  16.482  14.457
  101PROX    C1 6862  13.725  16.358  14.411
  101PROX   H11 6863  13.715  16.290  14.499
  101PROX   H13 6864  13.673  16.329  14.318
  101PROX    C2 6865  13.878  16.364  14.373
  101PROX   H21 6866  13.927  16.374  14.471
  101PROX    C3 6867  13.918  16.488  14.289
  101PROX   H31 6868  14.029  16.497  14.292
  101PROX   H32 6869  13.890  16.499  14.183
  101PROX   H33 6870  13.862  16.573  14.333
  102PROX    O1 6871  13.918  16.244  14.297
  102PROX    C1 6872  14.061  16.234  14.291
  102PROX   H11 6873  14.092  16.306  14.213
  102PROX   H13 6874  14.106  16.243  14.393
  102PROX    C2 6875  14.101  16.096  14.244
  102PROX   H21 6876  14.057  16.072  14.146
  102PROX    C3 6877  14.046  15.985  14.339
  102PROX   H31 6878  14.071  15.885  14.298
  102PROX   H32 6879  14.086  15.987  14.442
  102PROX   H33 6880  13.937  15.997  14.355
  103PROX    O1 6881  14.244  16.104  14.246
  103PROX    C1 6882  14.307  15.995  14.183
  103PROX   H11 6883  14.297  15.905  14.248
  103PROX   H13 6884  14.264  15.965  14.085
  103PROX    C2 6885  14.465  16.016  14.166
  103PROX   H21 6886  14.501  16.051  14.265
  103PROX    C3 6887  14.493  16.130  14.065
  103PROX   H31 6888  14.469  16.106  13.959
  103PROX   H32 6889  14.439  16.226  14.081
  103PROX   H33 6890  14.602  16.150  14.076
  104PROX    O1 6891  14.524  15.888  14.129
  104PROX    C1 6892  14.669  15.883  14.119
  104PROX   H11 6893  14.694  15.799  14.050
  104PROX   H13 6894  14.714  15.975  14.077
  104PROX    C2 6895  14.740  15.848  14.255
  104PROX   H21 6896  14.725  15.928  14.330
  104PROX    C3 6897  14.889  15.827  14.236
  104PROX   H31 6898  14.903  15.777  14.138
  104PROX   H32 6899  14.947  15.921  14.246
  104PROX   H33 6900  14.933  15.758  14.311
  105PROX    O1 6901  14.687  15.727  14.293
  105PROX    C1 6902  14.670  15.722  14.436
  105PROX   H11 6903  14.769  15.754  14.476
  105PROX   H13 6904  14.591  15.794  14.467
  105PROX    C2 6905  14.651  15.586  14.500
  105PROX   H21 6906  14.635  15.603  14.608
  105PROX    C3 6907  14.777  15.507  14.494
  105PROX   H31 6908  14.808  15.504  14.387
  105PROX   H32 6909  14.858  15.551  14.555
  105PROX   H33 6910  14.762  15.405  14.535
  106PROX    O1 6911  14.546  15.514  14.441
  106PROX    C1 6912  14.421  15.562  14.480
  106PROX   H11 6913  14.383  15.498  14.563
  106PROX   H13 6914  14.421  15.660  14.533
  106PROX    C2 6915  14.321  15.562  14.365
  106PROX   H21 6916  14.356  15.636  14.290
  106PROX    C3 6917  14.183  15.612  14.416
  106PROX   H31 6918  14.181  15.709  14.470
  106PROX   H32 6919  14.111  15.632  14.334
  106PROX   H33 6920  14.138  15.538  14.486
  107PROX    O1 6921  14.303  15.433  14.302
  107PROX    C1 6922  14.256  15.324  14.384
  107PROX   H11 6923  14.302  15.325  14.485
  107PROX   H13 6924  14.151  15.352  14.403
  107PROX    C2 6925  14.282  15.186  14.317
  107PROX   H21 6926  14.260  15.192  14.208
  107PROX    C3 6927  14.195  15.078  14.389
  107PROX   H31 6928  14.235  14.975  14.380
  107PROX   H32 6929  14.177  15.113  14.493
  107PROX   H33 6930  14.093  15.073  14.346
  108PROX    O1 6931  14.417  15.137  14.338
  108PROX    C1 6932  14.519  15.207  14.266
  108PROX   H11 6933  14.499  15.226  14.158
  108PROX   H13 6934  14.530  15.305  14.317
  108PROX    C2 6935  14.650  15.134  14.266
  108PROX   H21 6936  14.672  15.105  14.371
  108PROX    C3 6937  14.770  15.222  14.207
  108PROX   H31 6938  14.768  15.235  14.097
  108PROX   H32 6939  14.774  15.324  14.251
  108PROX   H33 6940  14.859  15.163  14.238
  109PROX    O1 6941  14.659  15.014  14.187
  109PROX    C1 6942  14.624  14.898  14.262
  109PROX   H11 6943  14.533  14.910  14.326
  109PROX   H13 6944  14.603  14.810  14.198
  109PROX    C2 6945  14.747  14.848  14.353
  109PROX   H21 6946  14.771  14.934  14.420
  109PROX    C3 6947  14.868  14.821  14.263
  109PROX   H31 6948  14.902  14.918  14.221
  109PROX   H32 6949  14.949  14.775  14.324
  109PROX   H33 6950  14.839  14.749  14.184
  110PROX    O1 6951  14.705  14.739  14.425
  110PROX    C1 6952  14.794  14.722  14.533
  110PROX   H11 6953  14.873  14.653  14.497
  110PROX   H13 6954  14.836  14.816  14.574
  110PROX    C2 6955  14.713  14.645  14.653
  110PROX   H21 6956  14.776  14.645  14.744
  110PROX    C3 6957  14.682  14.499  14.618
  110PROX   H31 6958  14.602  14.470  14.689
  110PROX   H32 6959  14.633  14.498  14.518
  110PROX   H33 6960  14.775  14.438  14.615
  111PROX    O1 6961  14.583  14.700  14.673
  111PROX    C1 6962  14.591  14.832  14.723
  111PROX   H11 6963  14.657  14.838  14.813
  111PROX   H13 6964  14.622  14.904  14.645
  111PROX    C2 6965  14.451  14.874  14.758
  111PROX   H21 6966  14.397  14.803  14.824
  111PROX    C3 6967  14.368  14.886  14.625
  111PROX   H31 6968  14.363  14.784  14.583
  111PROX   H32 6969  14.274  14.939  14.652
  111PROX   H33 6970  14.415  14.943  14.542
  112PROX    O1 6971  14.452  15.008  14.823
  112PROX    C1 6972  14.364  15.008  14.936
  112PROX   H11 6973  14.260  14.989  14.901
  112PROX   H13 6974  14.383  14.923  15.005
  112PROX    C2 6975  14.376  15.146  15.009
  112PROX   H21 6976  14.477  15.149  15.057
  112PROX    C3 6977  14.268  15.159  15.126
  112PROX   H31 6978  14.168  15.126  15.092
  112PROX   H32 6979  14.303  15.080  15.197
  112PROX   H33 6980  14.268  15.259  15.172
  113PROX    O1 6981  14.358  15.256  14.915
  113PROX    C1 6982  14.374  15.389  14.964
  113PROX   H11 6983  14.296  15.420  15.037
  113PROX   H13 6984  14.471  15.400  15.016
  113PROX    C2 6985  14.388  15.499  14.855
  113PROX   H21 6986  14.439  15.447  14.771
  113PROX    C3 6987  14.473  15.620  14.896
  113PROX   H31 6988  14.578  15.596  14.923
  113PROX   H32 6989  14.468  15.687  14.807
  113PROX   H33 6990  14.433  15.681  14.980
  114PROX    O1 6991  14.258  15.530  14.797
  114PROX    C1 6992  14.202  15.647  14.857
  114PROX   H11 6993  14.210  15.643  14.968
  114PROX   H13 6994  14.260  15.737  14.827
  114PROX    C2 6995  14.048  15.655  14.828
  114PROX   H21 6996  14.034  15.585  14.742
  114PROX    C3 6997  13.995  15.796  14.805
  114PROX   H31 6998  14.044  15.861  14.880
  114PROX   H32 6999  14.033  15.826  14.705
  114PROX   H33 7000  13.885  15.801  14.818
  115PROX    O1 7001  13.980  15.624  14.949
  115PROX    C1 7002  13.937  15.493  14.952
  115PROX   H11 7003  13.853  15.488  14.880
  115PROX   H13 7004  14.012  15.415  14.925
  115PROX    C2 7005  13.867  15.458  15.090
  115PROX   H21 7006  13.801  15.540  15.127
  115PROX    C3 7007  13.957  15.427  15.201
  115PROX   H31 7008  13.895  15.410  15.292
  115PROX   H32 7009  14.016  15.335  15.181
  115PROX   H33 7010  14.033  15.505  15.224
  116PROX    O1 7011  13.796  15.330  15.063
  116PROX    C1 7012  13.709  15.289  15.168
  116PROX   H11 7013  13.754  15.286  15.270
  116PROX   H13 7014  13.634  15.371  15.171
  116PROX    C2 7015  13.646  15.163  15.134
  116PROX   H21 7016  13.626  15.164  15.025
  116PROX    C3 7017  13.514  15.142  15.210
  116PROX   H31 7018  13.442  15.217  15.173
  116PROX   H32 7019  13.476  15.039  15.192
  116PROX   H33 7020  13.525  15.164  15.319
  117PROX    O1 7021  13.729  15.056  15.173
  117PROX    C1 7022  13.836  15.032  15.081
  117PROX   H11 7023  13.800  15.050  14.978
  117PROX   H13 7024  13.919  15.104  15.096
  117PROX    C2 7025  13.904  14.892  15.094
  117PROX   H21 7026  13.827  14.812  15.088
  117PROX    C3 7027  13.970  14.863  15.225
  117PROX   H31 7028  14.044  14.942  15.249
  117PROX   H32 7029  13.909  14.864  15.318
  117PROX   H33 7030  14.017  14.763  15.216
  118PROX    O1 7031  13.994  14.876  14.986
  118PROX    C1 7032  13.929  14.816  14.873
  118PROX   H11 7033  13.920  14.706  14.879
  118PROX   H13 7034  13.823  14.848  14.877
  118PROX    C2 7035  13.991  14.874  14.747
  118PROX   H21 7036  14.095  14.835  14.740
  118PROX    C3 7037  13.986  15.028  14.737
  118PROX   H31 7038  13.879  15.057  14.725
  118PROX   H32 7039  14.027  15.065  14.833
  118PROX   H33 7040  14.051  15.059  14.653
  119PROX    O1 7041  13.919  14.819  14.638
  119PROX    C1 7042  13.983  14.830  14.510
  119PROX   H11 7043  13.987  14.940  14.491
  119PROX   H13 7044  14.089  14.797  14.508
  119PROX    C2 7045  13.901  14.760  14.404
  119PROX   H21 7046  13.796  14.763  14.439
  119PROX    C3 7047  13.913  14.606  14.392
  119PROX   H31 7048  14.017  14.579  14.363
  119PROX   H32 7049  13.885  14.553  14.486
  119PROX   H33 7050  13.855  14.576  14.303
  120PROX    O1 7051  13.910  14.819  14.278
  120PROX    C1 7052  14.035  14.797  14.216
  120PROX   H11 7053  14.119  14.791  14.289
  120PROX   H13 7054  14.024  14.697  14.169
  120PROX    C2 7055  14.052  14.904  14.114
  120PROX   H21 7056  14.068  15.002  14.163
  120PROX    C3 7057  13.938  14.911  14.006
  120PROX   H31 7058  13.843  14.930  14.059
  120PROX   H32 7059  13.955  14.982  13.923
  120PROX   H33 7060  13.909  14.811  13.968
  121PROX    O1 7061  14.179  14.897  14.050
  121PROX    C1 7062  14.193  14.809  13.944
  121PROX   H11 7063  14.159  14.710  13.982
  121PROX   H13 7064  14.126  14.834  13.859
  121PROX    C2 7065  14.345  14.804  13.901
  121PROX   H21 7066  14.402  14.749  13.980
  121PROX    C3 7067  14.399  14.948  13.886
  121PROX   H31 7068  14.395  14.998  13.985
  121PROX   H32 7069  14.505  14.961  13.856
  121PROX   H33 7070  14.339  15.013  13.818
  122PROX    O1 7071  14.356  14.733  13.778
  122PROX    C1 7072  14.286  14.616  13.769
  122PROX   H11 7073  14.284  14.565  13.868
  122PROX   H13 7074  14.183  14.629  13.729
  122PROX    C2 7075  14.361  14.524  13.669
  122PROX   H21 7076  14.470  14.536  13.684
  122PROX    C3 7077  14.327  14.566  13.522
  122PROX   H31 7078  14.374  14.662  13.492
  122PROX   H32 7079  14.374  14.495  13.450
  122PROX   H33 7080  14.216  14.573  13.518
  123PROX    O1 7081  14.337  14.387  13.698
  123PROX    C1 7082  14.210  14.344  13.650
  123PROX   H11 7083  14.130  14.419  13.668
  123PROX   H13 7084  14.226  14.316  13.543
  123PROX    C2 7085  14.175  14.212  13.723
  123PROX   H21 7086  14.165  14.225  13.833
  123PROX    C3 7087  14.285  14.108  13.715
  123PROX   H31 7088  14.382  14.139  13.759
  123PROX   H32 7089  14.245  14.018  13.767
  123PROX   H33 7090  14.313  14.093  13.609
  124PROX    O1 7091  14.068  14.153  13.659
  124PROX    C1 7092  13.943  14.216  13.703
  124PROX   H11 7093  13.922  14.181  13.806
  124PROX   H13 7094  13.946  14.327  13.700
  124PROX    C2 7095  13.834  14.174  13.602
  124PROX   H21 7096  13.835  14.063  13.611
  124PROX    C3 7097  13.854  14.224  13.462
  124PROX   H31 7098  13.940  14.172  13.414
  124PROX   H32 7099  13.757  14.221  13.407
  124PROX   H33 7100  13.888  14.329  13.473
  125PROX    O1 7101  13.714  14.240  13.643
  125PROX    C1 7102  13.658  14.189  13.763
  125PROX   H11 7103  13.663  14.078  13.761
  125PROX   H13 7104  13.692  14.237  13.857
  125PROX    C2 7105  13.501  14.231  13.762
  125PROX   H21 7106  13.461  14.177  13.673
  125PROX    C3 7107  13.474  14.380  13.748
  125PROX   H31 7108  13.486  14.427  13.848
  125PROX   H32 7109  13.545  14.427  13.676
  125PROX   H33 7110  13.378  14.404  13.696
  126PROX    O1 7111  13.440  14.187  13.881
  126PROX    C1 7112  13.301  14.170  13.863
  126PROX   H11 7113  13.256  14.271  13.854
  126PROX   H13 7114  13.286  14.118  13.766
  126PROX    C2 7115  13.243  14.085  13.977
  126PROX   H21 7116  13.308  14.098  14.066
  126PROX    C3 7117  13.238  13.933  13.934
  126PROX   H31 7118  13.232  13.867  14.023
  126PROX   H32 7119  13.146  13.919  13.873
  126PROX   H33 7120  13.332  13.907  13.881
  127PROX    O1 7121  13.108  14.114  13.999
  127PROX    C1 7122  13.085  14.215  14.095
  127PROX   H11 7123  13.123  14.314  14.063
  127PROX   H13 7124  12.974  14.215  14.101
  127PROX    C2 7125  13.114  14.179  14.244
  127PROX   H21 7126  13.219  14.156  14.269
  127PROX    C3 7127  13.030  14.061  14.304
  127PROX   H31 7128  13.024  14.073  14.414
  127PROX   H32 7129  12.930  14.065  14.257
  127PROX   H33 7130  13.070  13.959  14.283
  128PROX    O1 7131  13.074  14.283  14.335
  128PROX    C1 7132  13.163  14.388  14.330
  128PROX   H11 7133  13.261  14.355  14.370
  128PROX   H13 7134  13.178  14.427  14.227
  128PROX    C2 7135  13.125  14.505  14.428
  128PROX   H21 7136  13.211  14.576  14.427
  128PROX    C3 7137  13.120  14.475  14.579
  128PROX   H31 7138  13.194  14.393  14.592
  128PROX   H32 7139  13.138  14.560  14.648
  128PROX   H33 7140  13.025  14.426  14.610
  129PROX    O1 7141  13.009  14.575  14.382
  129PROX    C1 7142  13.024  14.651  14.268
  129PROX   H11 7143  13.098  14.732  14.288
  129PROX   H13 7144  13.064  14.599  14.178
  129PROX    C2 7145  12.883  14.714  14.230
  129PROX   H21 7146  12.828  14.746  14.321
  129PROX    C3 7147  12.795  14.615  14.159
  129PROX   H31 7148  12.691  14.652  14.141
  129PROX   H32 7149  12.848  14.581  14.068
  129PROX   H33 7150  12.780  14.521  14.217
  130PROX    O1 7151  12.895  14.819  14.135
  130PROX    C1 7152  12.972  14.931  14.183
  130PROX   H11 7153  12.972  14.941  14.294
  130PROX   H13 7154  13.078  14.907  14.159
  130PROX    C2 7155  12.938  15.051  14.102
  130PROX   H21 7156  12.829  15.054  14.083
  130PROX    C3 7157  13.024  15.053  13.978
  130PROX   H31 7158  12.994  14.961  13.926
  130PROX   H32 7159  13.016  15.143  13.913
  130PROX   H33 7160  13.132  15.038  14.001
  131PROX    O1 7161  12.974  15.171  14.177
  131PROX    C1 7162  12.882  15.198  14.285
  131PROX   H11 7163  12.775  15.193  14.253
  131PROX   H13 7164  12.907  15.129  14.368
  131PROX    C2 7165  12.907  15.335  14.348
  131PROX   H21 7166  13.018  15.343  14.355
  131PROX    C3 7167  12.845  15.345  14.483
  131PROX   H31 7168  12.737  15.324  14.470
  131PROX   H32 7169  12.894  15.272  14.551
  131PROX   H33 7170  12.863  15.449  14.518
  132PROX    O1 7171  12.855  15.440  14.270
  132PROX    C1 7172  12.945  15.486  14.164
  132PROX   H11 7173  13.040  15.531  14.198
  132PROX   H13 7174  12.983  15.400  14.104
  132PROX    C2 7175  12.895  15.578  14.052
  132PROX   H21 7176  12.875  15.673  14.105
  132PROX    C3 7177  12.760  15.551  13.995
  132PROX   H31 7178  12.747  15.449  13.952
  132PROX   H32 7179  12.686  15.567  14.077
  132PROX   H33 7180  12.722  15.619  13.916
  133PROX    O1 7181  12.997  15.591  13.954
  133PROX    C1 7182  12.992  15.483  13.860
  133PROX   H11 7183  12.933  15.393  13.887
  133PROX   H13 7184  12.934  15.518  13.771
  133PROX    C2 7185  13.129  15.430  13.819
  133PROX   H21 7186  13.193  15.519  13.798
  133PROX    C3 7187  13.129  15.349  13.692
  133PROX   H31 7188  13.231  15.312  13.668
  133PROX   H32 7189  13.063  15.259  13.691
  133PROX   H33 7190  13.112  15.411  13.602
  134PROX    O1 7191  13.188  15.362  13.928
  134PROX    C1 7192  13.326  15.329  13.907
  134PROX   H11 7193  13.322  15.228  13.860
  134PROX   H13 7194  13.374  15.400  13.836
  134PROX    C2 7195  13.406  15.321  14.038
  134PROX   H21 7196  13.509  15.297  14.004
  134PROX    C3 7197  13.348  15.216  14.134
  134PROX   H31 7198  13.403  15.236  14.229
  134PROX   H32 7199  13.238  15.225  14.150
  134PROX   H33 7200  13.375  15.110  14.115
  135PROX    O1 7201  13.428  15.447  14.101
  135PROX    C1 7202  13.321  15.503  14.181
  135PROX   H11 7203  13.237  15.508  14.107
  135PROX   H13 7204  13.279  15.447  14.267
  135PROX    C2 7205  13.353  15.646  14.225
  135PROX   H21 7206  13.389  15.699  14.134
  135PROX    C3 7207  13.466  15.638  14.328
  135PROX   H31 7208  13.556  15.585  14.291
  135PROX   H32 7209  13.496  15.742  14.353
  135PROX   H33 7210  13.422  15.595  14.421
  136PROX    O1 7211  13.237  15.735  14.265
  136PROX    C1 7212  13.189  15.700  14.401
  136PROX   H11 7213  13.167  15.591  14.402
  136PROX   H13 7214  13.264  15.720  14.480
  136PROX    C2 7215  13.052  15.765  14.440
  136PROX   H21 7216  12.976  15.739  14.364
  136PROX    C3 7217  13.061  15.918  14.460
  136PROX   H31 7218  13.151  15.938  14.522
  136PROX   H32 7219  13.067  15.967  14.360
  136PROX   H33 7220  12.969  15.951  14.513
  137PROX    O1 7221  13.006  15.693  14.549
  137PROX    C1 7222  13.078  15.708  14.668
  137PROX   H11 7223  13.174  15.762  14.652
  137PROX   H13 7224  13.013  15.772  14.732
  137PROX    C2 7225  13.106  15.572  14.716
  137PROX   H21 7226  13.013  15.512  14.707
  137PROX    C3 7227  13.153  15.578  14.866
  137PROX   H31 7228  13.156  15.475  14.907
  137PROX   H32 7229  13.257  15.615  14.874
  137PROX   H33 7230  13.095  15.645  14.932
  138PROX    O1 7231  13.220  15.513  14.647
  138PROX    C1 7232  13.193  15.386  14.585
  138PROX   H11 7233  13.086  15.360  14.600
  138PROX   H13 7234  13.225  15.408  14.481
  138PROX    C2 7235  13.278  15.271  14.655
  138PROX   H21 7236  13.251  15.281  14.762
  138PROX    C3 7237  13.429  15.296  14.630
  138PROX   H31 7238  13.463  15.284  14.524
  138PROX   H32 7239  13.444  15.405  14.648
  138PROX   H33 7240  13.499  15.239  14.693
  139PROX    O1 7241  13.237  15.139  14.618
  139PROX    C1 7242  13.292  15.080  14.503
  139PROX   H11 7243  13.265  15.142  14.415
  139PROX   H13 7244  13.402  15.062  14.508
  139PROX    C2 7245  13.215  14.941  14.475
  139PROX   H21 7246  13.106  14.953  14.459
  139PROX    C3 7247  13.223  14.839  14.587
  139PROX   H31 7248  13.190  14.891  14.680
  139PROX   H32 7249  13.154  14.756  14.560
  139PROX   H33 7250  13.321  14.800  14.621
  140PROX    O1 7251  13.256  14.883  14.356
  140PROX    C1 7252  13.398  14.860  14.349
  140PROX   H11 7253  13.441  14.937  14.281
  140PROX   H13 7254  13.454  14.878  14.443
  140PROX    C2 7255  13.428  14.713  14.297
  140PROX   H21 7256  13.412  14.645  14.383
  140PROX    C3 7257  13.578  14.714  14.259
  140PROX   H31 7258  13.616  14.614  14.230
  140PROX   H32 7259  13.607  14.796  14.190
  140PROX   H33 7260  13.627  14.730  14.358
  141PROX    O1 7261  13.341  14.672  14.191
  141PROX    C1 7262  13.360  14.741  14.071
  141PROX   H11 7263  13.373  14.851  14.073
  141PROX   H13 7264  13.455  14.723  14.016
  141PROX    C2 7265  13.248  14.721  13.963
  141PROX   H21 7266  13.154  14.764  14.004
  141PROX    C3 7267  13.208  14.580  13.930
  141PROX   H31 7268  13.298  14.516  13.914
  141PROX   H32 7269  13.149  14.539  14.015
  141PROX   H33 7270  13.144  14.580  13.839
  142PROX    O1 7271  13.289  14.783  13.842
  142PROX    C1 7272  13.369  14.701  13.759
  142PROX   H11 7273  13.444  14.641  13.816
  142PROX   H13 7274  13.312  14.630  13.697
  142PROX    C2 7275  13.452  14.793  13.665
  142PROX   H21 7276  13.394  14.867  13.605
  142PROX    C3 7277  13.542  14.702  13.575
  142PROX   H31 7278  13.615  14.762  13.516
  142PROX   H32 7279  13.604  14.633  13.636
  142PROX   H33 7280  13.481  14.637  13.508
  143PROX    O1 7281  13.555  14.860  13.742
  143PROX    C1 7282  13.553  15.004  13.718
  143PROX   H11 7283  13.579  15.020  13.611
  143PROX   H13 7284  13.449  15.038  13.735
  143PROX    C2 7285  13.642  15.065  13.821
  143PROX   H21 7286  13.747  15.032  13.821
  143PROX    C3 7287  13.588  15.026  13.960
  143PROX   H31 7288  13.486  15.070  13.958
  143PROX   H32 7289  13.587  14.916  13.976
  143PROX   H33 7290  13.646  15.074  14.041
  144PROX    O1 7291  13.629  15.209  13.806
  144PROX    C1 7292  13.704  15.256  13.689
  144PROX   H11 7293  13.806  15.286  13.719
  144PROX   H13 7294  13.723  15.173  13.617
  144PROX    C2 7295  13.638  15.379  13.625
  144PROX   H21 7296  13.599  15.435  13.713
  144PROX    C3 7297  13.516  15.349  13.532
  144PROX   H31 7298  13.557  15.314  13.435
  144PROX   H32 7299  13.436  15.292  13.584
  144PROX   H33 7300  13.462  15.443  13.511
  145PROX    O1 7301  13.739  15.454  13.563
  145PROX    C1 7302  13.762  15.581  13.627
  145PROX   H11 7303  13.682  15.655  13.605
  145PROX   H13 7304  13.762  15.566  13.738
  145PROX    C2 7305  13.894  15.634  13.576
  145PROX   H21 7306  13.880  15.669  13.472
  145PROX    C3 7307  14.011  15.532  13.606
  145PROX   H31 7308  14.101  15.597  13.610
  145PROX   H32 7309  14.001  15.486  13.707
  145PROX   H33 7310  14.028  15.461  13.523
  146PROX    O1 7311  13.922  15.745  13.660
  146PROX    C1 7312  13.906  15.872  13.616
  146PROX   H11 7313  13.931  15.939  13.701
  146PROX   H13 7314  13.969  15.890  13.526
  146PROX    C2 7315  13.752  15.905  13.576
  146PROX   H21 7316  13.729  15.845  13.486
  146PROX    C3 7317  13.729  16.052  13.536
  146PROX   H31 7318  13.792  16.069  13.446
  146PROX   H32 7319  13.622  16.078  13.528
  146PROX   H33 7320  13.769  16.119  13.615
  147PROX    O1 7321  13.670  15.880  13.688
  147PROX    C1 7322  13.530  15.859  13.660
  147PROX   H11 7323  13.495  15.956  13.618
  147PROX   H13 7324  13.511  15.776  13.589
  147PROX    C2 7325  13.448  15.835  13.783
  147PROX   H21 7326  13.500  15.884  13.868
  147PROX    C3 7327  13.426  15.684  13.818
  147PROX   H31 7328  13.339  15.672  13.886
  147PROX   H32 7329  13.396  15.625  13.730
  147PROX   H33 7330  13.514  15.637  13.867
  148PROX    O1 7331  13.313  15.873  13.763
  148PROX    C1 7332  13.278  15.987  13.835
  148PROX   H11 7333  13.367  16.054  13.834
  148PROX   H13 7334  13.199  16.049  13.787
  148PROX    C2 7335  13.250  15.953  13.984
  148PROX   H21 7336  13.330  15.887  14.024
  148PROX    C3 7337  13.112  15.888  13.998
  148PROX   H31 7338  13.101  15.799  13.933
  148PROX   H32 7339  13.105  15.855  14.103
  148PROX   H33 7340  13.028  15.957  13.977
  149PROX    O1 7341  13.242  16.079  14.055
  149PROX    C1 7342  13.292  16.067  14.188
  149PROX   H11 7343  13.249  16.148  14.252
  149PROX   H13 7344  13.257  15.968  14.225
  149PROX    C2 7345  13.447  16.085  14.208
  149PROX   H21 7346  13.492  16.010  14.139
  149PROX    C3 7347  13.496  16.035  14.346
  149PROX   H31 7348  13.607  16.038  14.344
  149PROX   H32 7349  13.455  16.103  14.424
  149PROX   H33 7350  13.462  15.931  14.367
  150PROX    O1 7351  13.491  16.221  14.177
  150PROX    C1 7352  13.537  16.238  14.044
  150PROX   H11 7353  13.456  16.201  13.977
  150PROX   H13 7354  13.536  16.349  14.033
  150PROX    C2 7355  13.680  16.174  14.031
  150PROX   H21 7356  13.740  16.209  14.117
  150PROX    C3 7357  13.749  16.225  13.905
  150PROX   H31 7358  13.762  16.335  13.912
  150PROX   H32 7359  13.848  16.177  13.889
  150PROX   H33 7360  13.679  16.202  13.821
  151PROX    O1 7361  13.672  16.031  14.009
  151PROX    C1 7362  13.795  15.965  14.034
  151PROX   H11 7363  13.879  16.016  13.982
  151PROX   H13 7364  13.812  15.978  14.143
  151PROX    C2 7365  13.800  15.813  14.003
  151PROX   H21 7366  13.773  15.806  13.896
  151PROX    C3 7367  13.693  15.733  14.079
  151PROX   H31 7368  13.701  15.630  14.040
  151PROX   H32 7369  13.716  15.728  14.188
  151PROX   H33 7370  13.593  15.777  14.062
  152PROX    O1 7371  13.916  15.750  14.044
  152PROX    C1 7372  14.029  15.790  13.964
  152PROX   H11 7373  13.991  15.837  13.871
  152PROX   H13 7374  14.091  15.867  14.016
  152PROX    C2 7375  14.105  15.659  13.927
  152PROX   H21 7376  14.031  15.588  13.883
  152PROX    C3 7377  14.166  15.614  14.057
  152PROX   H31 7378  14.225  15.521  14.048
  152PROX   H32 7379  14.240  15.688  14.095
  152PROX   H33 7380  14.085  15.596  14.131
  153PROX    O1 7381  14.201  15.686  13.828
  153PROX    C1 7382  14.318  15.753  13.870
  153PROX   H11 7383  14.293  15.845  13.928
  153PROX   H13 7384  14.386  15.691  13.933
  153PROX    C2 7385  14.406  15.792  13.747
  153PROX   H21 7386  14.378  15.727  13.661
  153PROX    C3 7387  14.560  15.776  13.761
  153PROX   H31 7388  14.599  15.674  13.782
  153PROX   H32 7389  14.626  15.823  13.685
  153PROX   H33 7390  14.582  15.836  13.852
  154PROX    O1 7391  14.390  15.930  13.707
  154PROX    C1 7392  14.261  15.952  13.658
  154PROX   H11 7393  14.241  15.896  13.564
  154PROX   H13 7394  14.178  15.916  13.722
  154PROX    C2 7395  14.228  16.108  13.635
  154PROX   H21 7396  14.316  16.155  13.586
  154PROX    C3 7397  14.195  16.179  13.763
  154PROX   H31 7398  14.261  16.141  13.844
  154PROX   H32 7399  14.215  16.287  13.746
  154PROX   H33 7400  14.093  16.163  13.806
  155PROX    O1 7401  14.115  16.118  13.544
  155PROX    C1 7402  14.091  16.251  13.496
  155PROX   H11 7403  13.982  16.263  13.483
  155PROX   H13 7404  14.110  16.330  13.572
  155PROX    C2 7405  14.163  16.279  13.372
  155PROX   H21 7406  14.267  16.240  13.375
  155PROX    C3 7407  14.177  16.433  13.368
  155PROX   H31 7408  14.237  16.460  13.278
  155PROX   H32 7409  14.074  16.473  13.365
  155PROX   H33 7410  14.239  16.465  13.455
  156PROX    O1 7411  14.089  16.231  13.258
  156PROX    C1 7412  14.109  16.091  13.227
  156PROX   H11 7413  14.117  16.036  13.323
  156PROX   H13 7414  14.019  16.050  13.176
  156PROX    C2 7415  14.229  16.059  13.139
  156PROX   H21 7416  14.325  16.099  13.180
  156PROX    C3 7417  14.210  16.116  12.998
  156PROX   H31 7418  14.193  16.225  13.003
  156PROX   H32 7419  14.285  16.085  12.922
  156PROX   H33 7420  14.122  16.065  12.953
  157PROX    O1 7421  14.241  15.919  13.140
  157PROX    C1 7422  14.318  15.880  13.252
  157PROX   H11 7423  14.424  15.885  13.221
  157PROX   H13 7424  14.310  15.943  13.343
  157PROX    C2 7425  14.288  15.734  13.277
  157PROX   H21 7426  14.314  15.677  13.185
  157PROX    C3 7427  14.135  15.724  13.309
  157PROX   H31 7428  14.075  15.765  13.225
  157PROX   H32 7429  14.119  15.614  13.316
  157PROX   H33 7430  14.123  15.774  13.408
  158PROX    O1 7431  14.373  15.687  13.379
  158PROX    C1 7432  14.362  15.546  13.402
  158PROX   H11 7433  14.270  15.538  13.464
  158PROX   H13 7434  14.357  15.484  13.310
  158PROX    C2 7435  14.482  15.490  13.487
  158PROX   H21 7436  14.478  15.536  13.588
  158PROX    C3 7437  14.618  15.536  13.431
  158PROX   H31 7438  14.612  15.647  13.434
  158PROX   H32 7439  14.712  15.498  13.476
  158PROX   H33 7440  14.616  15.507  13.324
  159PROX    O1 7441  14.469  15.352  13.514
  159PROX    C1 7442  14.538  15.306  13.628
  159PROX   H11 7443  14.565  15.198  13.621
  159PROX   H13 7444  14.642  15.344  13.626
  159PROX    C2 7445  14.461  15.335  13.765
  159PROX   H21 7446  14.433  15.443  13.761
  159PROX    C3 7447  14.535  15.300  13.883
  159PROX   H31 7448  14.486  15.337  13.976
  159PROX   H32 7449  14.569  15.194  13.885
  159PROX   H33 7450  14.631  15.355  13.879
  160PROX    O1 7451  14.348  15.257  13.757
  160PROX    C1 7452  14.244  15.298  13.841
  160PROX   H11 7453  14.286  15.322  13.941
  160PROX   H13 7454  14.191  15.388  13.803
  160PROX    C2 7455  14.126  15.196  13.841
  160PROX   H21 7456  14.148  15.098  13.887
  160PROX    C3 7457  14.079  15.173  13.696
  160PROX   H31 7458  14.162  15.120  13.644
  160PROX   H32 7459  13.992  15.105  13.691
  160PROX   H33 7460  14.048  15.265  13.643
  161PROX    O1 7461  14.019  15.254  13.904
  161PROX    C1 7462  14.040  15.260  14.044
  161PROX   H11 7463  14.114  15.183  14.075
  161PROX   H13 7464  14.090  15.356  14.069
  161PROX    C2 7465  13.904  15.252  14.122
  161PROX   H21 7466  13.851  15.166  14.075
  161PROX    C3 7467  13.810  15.375  14.091
  161PROX   H31 7468  13.708  15.347  14.124
  161PROX   H32 7469  13.843  15.469  14.139
  161PROX   H33 7470  13.801  15.393  13.982
  162PROX    O1 7471  13.931  15.229  14.261
  162PROX    C1 7472  13.819  15.163  14.320
  162PROX   H11 7473  13.724  15.175  14.262
  162PROX   H13 7474  13.841  15.055  14.303
  162PROX    C2 7475  13.795  15.195  14.463
  162PROX   H21 7476  13.888  15.185  14.523
  162PROX    C3 7477  13.689  15.090  14.518
  162PROX   H31 7478  13.658  15.102  14.624
  162PROX   H32 7479  13.593  15.096  14.462
  162PROX   H33 7480  13.736  14.990  14.506
  163PROX    O1 7481  13.745  15.327  14.482
  163PROX    C1 7482  13.764  15.382  14.611
  163PROX   H11 7483  13.709  15.316  14.682
  163PROX   H13 7484  13.872  15.387  14.636
  163PROX    C2 7485  13.697  15.525  14.608
  163PROX   H21 7486  13.597  15.512  14.562
  163PROX    C3 7487  13.781  15.625  14.521
  163PROX   H31 7488  13.715  15.707  14.488
  163PROX   H32 7489  13.874  15.658  14.571
  163PROX   H33 7490  13.803  15.568  14.428
  164PROX    O1 7491  13.678  15.566  14.747
  164PROX    C1 7492  13.574  15.663  14.756
  164PROX   H11 7493  13.592  15.748  14.687
  164PROX   H13 7494  13.474  15.623  14.728
  164PROX    C2 7495  13.574  15.715  14.907
  164PROX   H21 7496  13.677  15.749  14.932
  164PROX    C3 7497  13.526  15.615  15.014
  164PROX   H31 7498  13.545  15.652  15.117
  164PROX   H32 7499  13.421  15.580  15.004
  164PROX   H33 7500  13.585  15.522  14.997
  165PROX    O1 7501  13.482  15.820  14.915
  165PROX    C1 7502  13.528  15.942  14.862
  165PROX   H11 7503  13.618  15.985  14.910
  165PROX   H13 7504  13.550  15.938  14.753
  165PROX    C2 7505  13.411  16.045  14.867
  165PROX   H21 7506  13.390  16.065  14.974
  165PROX    C3 7507  13.290  15.989  14.792
  165PROX   H31 7508  13.202  16.055  14.804
  165PROX   H32 7509  13.318  15.996  14.685
  165PROX   H33 7510  13.272  15.887  14.831
  166ETHO    O1 7511  13.452  16.161  14.797
  166ETHO    C1 7512  13.357  16.271  14.819
  166ETHO   H11 7513  13.261  16.244  14.867
  166ETHO   H13 7514  13.348  16.317  14.718
  166ETHO    C2 7515  13.417  16.385  14.899
  166ETHO   H21 7516  13.341  16.461  14.929
  166ETHO   H23 7517  13.482  16.448  14.835
  167ETHO    O1 7518  13.485  16.341  15.014
  167ETHO    C1 7519  13.582  16.439  15.051
  167ETHO   H11 7520  13.679  16.426  14.997
  167ETHO   H13 7521  13.548  16.543  15.032
  167ETHO    C2 7522  13.620  16.428  15.200
  167ETHO   H21 7523  13.711  16.492  15.205
  167ETHO   H23 7524  13.646  16.323  15.228
  168ETHO    O1 7525  13.517  16.467  15.286
  168ETHO    C1 7526  13.553  16.474  15.423
  168ETHO   H11 7527  13.650  16.422  15.437
  168ETHO   H13 7528  13.480  16.419  15.487
  168ETHO    C2 7529  13.568  16.616  15.481
  168ETHO   H21 7530  13.618  16.604  15.580
  168ETHO   H23 7531  13.470  16.668  15.475
  169ETHO    O1 7532  13.667  16.685  15.399
  169ETHO    C1 7533  13.678  16.821  15.422
  169ETHO   H11 7534  13.578  16.867  15.408
  169ETHO   H13 7535  13.693  16.835  15.531
  169ETHO    C2 7536  13.791  16.881  15.340
  169ETHO   H21 7537  13.765  16.889  15.233
  169ETHO   H23 7538  13.882  16.818  15.336
  170ETHO    O1 7539  13.826  17.002  15.405
  170ETHO    C1 7540  13.876  17.099  15.319
  170ETHO   H11 7541  13.793  17.136  15.255
  170ETHO   H13 7542  13.929  17.039  15.241
  170ETHO    C2 7543  13.966  17.202  15.385
  170ETHO   H21 7544  13.913  17.242  15.473
  170ETHO   H23 7545  13.991  17.281  15.311
  171ETHO    O1 7546  14.088  17.143  15.426
  171ETHO    C1 7547  14.188  17.238  15.439
  171ETHO   H11 7548  14.204  17.295  15.345
  171ETHO   H13 7549  14.157  17.314  15.514
  171ETHO    C2 7550  14.314  17.169  15.477
  171ETHO   H21 7551  14.348  17.106  15.392
  171ETHO   H23 7552  14.309  17.100  15.564
  172ETHO    O1 7553  14.417  17.271  15.503
  172ETHO    C1 7554  14.512  17.241  15.601
  172ETHO   H11 7555  14.533  17.133  15.586
  172ETHO   H13 7556  14.464  17.243  15.701
  172ETHO    C2 7557  14.630  17.334  15.605
  172ETHO   H21 7558  14.708  17.301  15.677
  172ETHO   H23 7559  14.591  17.429  15.648
  173ETHO    O1 7560  14.689  17.375  15.479
  173ETHO    C1 7561  14.805  17.455  15.497
  173ETHO   H11 7562  14.803  17.521  15.587
  173ETHO   H13 7563  14.888  17.390  15.529
  173ETHO    C2 7564  14.845  17.529  15.374
  173ETHO   H21 7565  14.939  17.585  15.392
  173ETHO   H23 7566  14.842  17.449  15.297
  174ETHO    O1 7567  14.759  17.634  15.343
  174ETHO    C1 7568  14.743  17.662  15.204
  174ETHO   H11 7569  14.837  17.694  15.156
  174ETHO   H13 7570  14.702  17.568  15.160
  174ETHO    C2 7571  14.648  17.789  15.198
  174ETHO   H21 7572  14.580  17.784  15.285
  174ETHO   H23 7573  14.583  17.770  15.109
  175ETHO    O1 7574  14.724  17.916  15.195
  175ETHO    C1 7575  14.630  18.021  15.202
  175ETHO   H11 7576  14.556  18.011  15.120
  175ETHO   H13 7577  14.574  18.014  15.297
  175ETHO    C2 7578  14.712  18.152  15.199
  175ETHO   H21 7579  14.653  18.236  15.155
  175ETHO   H23 7580  14.810  18.141  15.149
  176ETHO    O1 7581  14.742  18.197  15.334
  176ETHO    C1 7582  14.835  18.304  15.330
  176ETHO   H11 7583  14.923  18.275  15.269
  176ETHO   H13 7584  14.792  18.393  15.279
  176ETHO    C2 7585  14.899  18.327  15.468
  176ETHO   H21 7586  14.992  18.381  15.440
  176ETHO   H23 7587  14.915  18.228  15.516
  177ETHO    O1 7588  14.828  18.426  15.539
  177ETHO    C1 7589  14.868  18.432  15.678
  177ETHO   H11 7590  14.965  18.381  15.689
  177ETHO   H13 7591  14.792  18.389  15.747
  177ETHO    C2 7592  14.889  18.578  15.731
  177ETHO   H21 7593  14.945  18.636  15.655
  177ETHO   H23 7594  14.946  18.577  15.826
  178ETHO    O1 7595  14.772  18.648  15.745
  178ETHO    C1 7596  14.793  18.771  15.805
  178ETHO   H11 7597  14.817  18.756  15.912
  178ETHO   H13 7598  14.874  18.826  15.752
  178ETHO    C2 7599  14.677  18.868  15.809
  178ETHO   H21 7600  14.614  18.840  15.896
  178ETHO   H23 7601  14.610  18.850  15.723
  179ETHO    O1 7602  14.712  19.000  15.822
  179ETHO    C1 7603  14.752  19.031  15.958
  179ETHO   H11 7604  14.859  19.002  15.959
  179ETHO   H13 7605  14.709  18.965  16.036
  179ETHO    C2 7606  14.732  19.178  16.009
  179ETHO   H21 7607  14.778  19.248  15.936
  179ETHO   H23 7608  14.784  19.198  16.105
  180ETHO    O1 7609  14.593  19.211  16.022
  180ETHO    C1 7610  14.560  19.333  15.950
  180ETHO   H11 7611  14.606  19.319  15.850
  180ETHO   H13 7612  14.449  19.344  15.947
  180ETHO    C2 7613  14.636  19.453  16.016
  180ETHO   H21 7614  14.605  19.532  15.944
  180ETHO   H23 7615  14.747  19.448  16.007
  181ETHO    O1 7616  14.579  19.483  16.143
  181ETHO    C1 7617  14.602  19.614  16.174
  181ETHO   H11 7618  14.535  19.673  16.107
  181ETHO   H13 7619  14.706  19.639  16.143
  181ETHO    C2 7620  14.578  19.655  16.327
  181ETHO   H21 7621  14.622  19.756  16.334
  181ETHO   H23 7622  14.638  19.581  16.383
  182ETHO    O1 7623  14.441  19.656  16.364
  182ETHO    C1 7624  14.388  19.534  16.419
  182ETHO   H11 7625  14.404  19.462  16.336
  182ETHO   H13 7626  14.451  19.503  16.505
  182ETHO    C2 7627  14.240  19.541  16.461
  182ETHO   H21 7628  14.207  19.436  16.475
  182ETHO   H23 7629  14.184  19.587  16.378
  183ETHO    O1 7630  14.223  19.610  16.585
  183ETHO    C1 7631  14.087  19.590  16.615
  183ETHO   H11 7632  14.066  19.486  16.647
  183ETHO   H13 7633  14.017  19.631  16.538
  183ETHO    C2 7634  14.054  19.676  16.742
  183ETHO   H21 7635  14.119  19.636  16.823
  183ETHO   H23 7636  13.949  19.650  16.763
  184ETHO    O1 7637  14.073  19.816  16.723
  184ETHO    C1 7638  14.050  19.878  16.848
  184ETHO   H11 7639  13.974  19.825  16.909
  184ETHO   H13 7640  14.148  19.890  16.898
  184ETHO    C2 7641  13.981  20.009  16.828
  184ETHO   H21 7642  13.870  20.011  16.824
  184ETHO   H23 7643  14.012  20.059  16.734
  185ETHO    O1 7644  14.026  20.105  16.925
  185ETHO    C1 7645  13.963  20.092  17.056
  185ETHO   H11 7646  13.865  20.038  17.054
  185ETHO   H13 7647  14.026  20.025  17.117
  185ETHO    C2 7648  13.953  20.228  17.121
  185ETHO   H21 7649  14.058  20.263  17.125
  185ETHO   H23 7650  13.912  20.209  17.223
  186ETHO    O1 7651  13.885  20.329  17.046
  186ETHO    C1 7652  13.865  20.442  17.134
  186ETHO   H11 7653  13.856  20.424  17.243
  186ETHO   H13 7654  13.943  20.521  17.135
  186ETHO    C2 7655  13.726  20.511  17.098
  186ETHO   H21 7656  13.700  20.589  17.172
  186ETHO   H23 7657  13.645  20.435  17.094
  187ETHO    O1 7658  13.739  20.584  16.978
  187ETHO    C1 7659  13.624  20.670  16.949
  187ETHO   H11 7660  13.529  20.612  16.960
  187ETHO   H13 7661  13.628  20.733  17.041
  187ETHO    C2 7662  13.637  20.745  16.816
  187ETHO   H21 7663  13.629  20.668  16.736
  187ETHO   H23 7664  13.730  20.806  16.810
  188ETHO    O1 7665  13.529  20.828  16.774
  188ETHO    C1 7666  13.535  20.961  16.822
  188ETHO   H11 7667  13.606  21.008  16.751
  188ETHO   H13 7668  13.573  20.966  16.926
  188ETHO    C2 7669  13.403  21.041  16.815
  188ETHO   H21 7670  13.417  21.129  16.881
  188ETHO   H23 7671  13.317  20.987  16.860
  189ETHO    O1 7672  13.377  21.073  16.679
  189ETHO    C1 7673  13.257  21.154  16.662
  189ETHO   H11 7674  13.169  21.116  16.719
  189ETHO   H13 7675  13.278  21.248  16.717
  189ETHO    C2 7676  13.238  21.193  16.517
  189ETHO   H21 7677  13.336  21.207  16.468
  189ETHO   H23 7678  13.180  21.288  16.511
  190ETHO    O1 7679  13.171  21.089  16.453
  190ETHO    C1 7680  13.191  21.087  16.312
  190ETHO   H11 7681  13.135  20.997  16.278
  190ETHO   H13 7682  13.299  21.070  16.289
  190ETHO    C2 7683  13.147  21.218  16.247
  190ETHO   H21 7684  13.063  21.260  16.306
  190ETHO   H23 7685  13.124  21.204  16.139
  191ETHO    O1 7686  13.253  21.317  16.235
  191ETHO    C1 7687  13.197  21.436  16.186
  191ETHO   H11 7688  13.147  21.396  16.096
  191ETHO   H13 7689  13.113  21.473  16.248
  191ETHO    C2 7690  13.285  21.552  16.144
  191ETHO   H21 7691  13.362  21.572  16.222
  191ETHO   H23 7692  13.215  21.638  16.138
  192ETHO    O1 7693  13.343  21.534  16.012
  192ETHO    C1 7694  13.437  21.634  15.976
  192ETHO   H11 7695  13.445  21.630  15.865
  192ETHO   H13 7696  13.535  21.612  16.022
  192ETHO    C2 7697  13.397  21.782  16.003
  192ETHO   H21 7698  13.291  21.811  15.990
  192ETHO   H23 7699  13.445  21.838  15.920
  193ETHO    O1 7700  13.444  21.849  16.122
  193ETHO    C1 7701  13.347  21.928  16.189
  193ETHO   H11 7702  13.327  22.016  16.123
  193ETHO   H13 7703  13.256  21.864  16.196
  193ETHO    C2 7704  13.397  21.976  16.322
  193ETHO   H21 7705  13.321  22.049  16.358
  193ETHO   H23 7706  13.488  22.037  16.303
  194ETHO    O1 7707  13.428  21.866  16.408
  194ETHO    C1 7708  13.311  21.817  16.470
  194ETHO   H11 7709  13.232  21.780  16.401
  194ETHO   H13 7710  13.266  21.903  16.524
  194ETHO    C2 7711  13.337  21.709  16.575
  194ETHO   H21 7712  13.401  21.765  16.647
  194ETHO   H23 7713  13.374  21.619  16.522
  195ETHO    O1 7714  13.215  21.682  16.645
  195ETHO    C1 7715  13.237  21.592  16.756
  195ETHO   H11 7716  13.258  21.491  16.717
  195ETHO   H13 7717  13.313  21.638  16.822
  195ETHO    C2 7718  13.122  21.584  16.861
  195ETHO   H21 7719  13.090  21.687  16.886
  195ETHO   H23 7720  13.162  21.539  16.954
  196ETHO    O1 7721  13.018  21.503  16.800
  196ETHO    C1 7722  12.914  21.471  16.890
  196ETHO   H11 7723  12.965  21.454  16.987
  196ETHO   H13 7724  12.846  21.558  16.897
  196ETHO    C2 7725  12.834  21.346  16.851
  196ETHO   H21 7726  12.784  21.370  16.755
  196ETHO   H23 7727  12.755  21.329  16.928
  197ETHO    O1 7728  12.909  21.231  16.825
  197ETHO    C1 7729  12.828  21.115  16.826
  197ETHO   H11 7730  12.786  21.107  16.929
  197ETHO   H13 7731  12.749  21.141  16.754
  197ETHO    C2 7732  12.881  20.973  16.800
  197ETHO   H21 7733  12.933  20.971  16.702
  197ETHO   H23 7734  12.800  20.898  16.801
  198ETHO    O1 7735  12.971  20.934  16.909
  198ETHO    C1 7736  13.044  20.814  16.896
  198ETHO   H11 7737  12.994  20.754  16.817
  198ETHO   H13 7738  13.142  20.841  16.852
  198ETHO    C2 7739  13.077  20.734  17.023
  198ETHO   H21 7740  13.111  20.798  17.107
  198ETHO   H23 7741  13.168  20.675  16.999
  199ETHO    O1 7742  12.969  20.652  17.072
  199ETHO    C1 7743  12.963  20.639  17.214
  199ETHO   H11 7744  12.917  20.732  17.254
  199ETHO   H13 7745  13.065  20.624  17.256
  199ETHO    C2 7746  12.864  20.527  17.247
  199ETHO   H21 7747  12.781  20.538  17.174
  199ETHO   H23 7748  12.822  20.551  17.347
  200ETHO    O1 7749  12.935  20.404  17.236
  200ETHO    C1 7750  12.850  20.294  17.240
  200ETHO   H11 7751  12.786  20.293  17.331
  200ETHO   H13 7752  12.774  20.299  17.159
  200ETHO    C2 7753  12.926  20.165  17.229
  200ETHO   H21 7754  12.877  20.085  17.288
  200ETHO   H23 7755  13.028  20.193  17.263
  201ETHO    O1 7756  12.935  20.126  17.086
  201ETHO    C1 7757  13.020  20.207  17.009
  201ETHO   H11 7758  13.113  20.212  17.068
  201ETHO   H13 7759  12.968  20.303  16.986
  201ETHO    C2 7760  13.068  20.136  16.876
  201ETHO   H21 7761  13.121  20.203  16.805
  201ETHO   H23 7762  12.983  20.102  16.813
  202ETHO    O1 7763  13.162  20.027  16.897
  202ETHO    C1 7764  13.218  19.975  16.775
  202ETHO   H11 7765  13.149  19.895  16.744
  202ETHO   H13 7766  13.217  20.049  16.693
  202ETHO    C2 7767  13.357  19.916  16.799
  202ETHO   H21 7768  13.356  19.816  16.848
  202ETHO   H23 7769  13.420  19.985  16.859
  203ETHO    O1 7770  13.420  19.888  16.670
  203ETHO    C1 7771  13.551  19.833  16.685
  203ETHO   H11 7772  13.550  19.736  16.738
  203ETHO   H13 7773  13.612  19.898  16.751
  203ETHO    C2 7774  13.641  19.801  16.561
  203ETHO   H21 7775  13.583  19.741  16.488
  203ETHO   H23 7776  13.728  19.738  16.591
  204ETHO    O1 7777  13.698  19.909  16.503
  204ETHO    C1 7778  13.777  19.878  16.392
  204ETHO   H11 7779  13.826  19.782  16.417
  204ETHO   H13 7780  13.717  19.856  16.300
  204ETHO    C2 7781  13.882  19.983  16.360
  204ETHO   H21 7782  13.946  20.002  16.449
  204ETHO   H23 7783  13.832  20.078  16.332
  205ETHO    O1 7784  13.959  19.937  16.256
  205ETHO    C1 7785  14.075  19.876  16.305
  205ETHO   H11 7786  14.041  19.801  16.380
  205ETHO   H13 7787  14.130  19.951  16.366
  205ETHO    C2 7788  14.158  19.812  16.196
  205ETHO   H21 7789  14.251  19.786  16.252
  205ETHO   H23 7790  14.185  19.879  16.111
  206ETHO    O1 7791  14.093  19.690  16.158
  206ETHO    C1 7792  14.175  19.611  16.071
  206ETHO   H11 7793  14.179  19.662  15.973
  206ETHO   H13 7794  14.276  19.612  16.116
  206ETHO    C2 7795  14.130  19.469  16.037
  206ETHO   H21 7796  14.193  19.405  16.102
  206ETHO   H23 7797  14.025  19.441  16.058
  207ETHO    O1 7798  14.161  19.429  15.905
  207ETHO    C1 7799  14.111  19.301  15.873
  207ETHO   H11 7800  14.000  19.303  15.885
  207ETHO   H13 7801  14.151  19.224  15.942
  207ETHO    C2 7802  14.150  19.255  15.729
  207ETHO   H21 7803  14.260  19.236  15.729
  207ETHO   H23 7804  14.136  19.347  15.669
  208ETHO    O1 7805  14.067  19.144  15.690
  208ETHO    C1 7806  14.075  19.121  15.548
  208ETHO   H11 7807  14.042  19.219  15.507
  208ETHO   H13 7808  14.180  19.098  15.519
  208ETHO    C2 7809  13.985  19.006  15.506
  208ETHO   H21 7810  13.947  19.028  15.404
  208ETHO   H23 7811  13.901  19.016  15.578
  209ETHO    O1 7812  14.028  18.871  15.515
  209ETHO    C1 7813  13.933  18.769  15.482
  209ETHO   H11 7814  13.887  18.790  15.384
  209ETHO   H13 7815  13.847  18.774  15.553
  209ETHO    C2 7816  14.011  18.633  15.477
  209ETHO   H21 7817  14.097  18.649  15.407
  209ETHO   H23 7818  13.955  18.550  15.429
  210ETHO    O1 7819  14.062  18.583  15.602
  210ETHO    C1 7820  14.139  18.462  15.590
  210ETHO   H11 7821  14.073  18.383  15.550
  210ETHO   H13 7822  14.211  18.456  15.506
  210ETHO    C2 7823  14.219  18.412  15.711
  210ETHO   H21 7824  14.276  18.321  15.682
  210ETHO   H23 7825  14.162  18.380  15.801
  211ETHO    O1 7826  14.315  18.518  15.754
  211ETHO    C1 7827  14.403  18.475  15.861
  211ETHO   H11 7828  14.454  18.563  15.906
  211ETHO   H13 7829  14.342  18.421  15.937
  211ETHO    C2 7830  14.516  18.372  15.813
  211ETHO   H21 7831  14.588  18.385  15.896
  211ETHO   H23 7832  14.559  18.408  15.717
  212ETHO    O1 7833  14.473  18.242  15.800
  212ETHO    C1 7834  14.592  18.171  15.757
  212ETHO   H11 7835  14.639  18.213  15.665
  212ETHO   H13 7836  14.666  18.170  15.840
  212ETHO    C2 7837  14.561  18.030  15.698
  212ETHO   H21 7838  14.665  17.997  15.677
  212ETHO   H23 7839  14.508  18.039  15.601
  213ETHO    O1 7840  14.483  17.951  15.787
  213ETHO    C1 7841  14.410  17.850  15.714
  213ETHO   H11 7842  14.393  17.881  15.609
  213ETHO   H13 7843  14.473  17.758  15.706
  213ETHO    C2 7844  14.285  17.794  15.787
  213ETHO   H21 7845  14.315  17.781  15.893
  213ETHO   H23 7846  14.271  17.691  15.749
  214ETHO    O1 7847  14.172  17.875  15.753
  214ETHO    C1 7848  14.056  17.795  15.775
  214ETHO   H11 7849  14.050  17.787  15.886
  214ETHO   H13 7850  14.060  17.706  15.709
  214ETHO    C2 7851  13.937  17.875  15.731
  214ETHO   H21 7852  13.953  17.981  15.760
  214ETHO   H23 7853  13.847  17.840  15.787
  215ETHO    O1 7854  13.915  17.865  15.592
  215ETHO    C1 7855  13.787  17.921  15.554
  215ETHO   H11 7856  13.718  17.834  15.569
  215ETHO   H13 7857  13.759  18.007  15.619
  215ETHO    C2 7858  13.793  17.978  15.410
  215ETHO   H21 7859  13.687  17.997  15.383
  215ETHO   H23 7860  13.833  17.898  15.344
  216ETHO    O1 7861  13.868  18.102  15.405
  216ETHO    C1 7862  13.828  18.177  15.290
  216ETHO   H11 7863  13.721  18.207  15.287
  216ETHO   H13 7864  13.823  18.116  15.198
  216ETHO    C2 7865  13.918  18.300  15.254
  216ETHO   H21 7866  13.939  18.368  15.340
  216ETHO   H23 7867  13.851  18.361  15.190
  217ETHO    O1 7868  14.037  18.270  15.176
  217ETHO    C1 7869  14.122  18.379  15.170
  217ETHO   H11 7870  14.063  18.465  15.130
  217ETHO   H13 7871  14.164  18.418  15.265
  217ETHO    C2 7872  14.241  18.367  15.066
  217ETHO   H21 7873  14.291  18.267  15.065
  217ETHO   H23 7874  14.300  18.458  15.090
  218ETHO    O1 7875  14.190  18.393  14.937
  218ETHO    C1 7876  14.281  18.374  14.837
  218ETHO   H11 7877  14.301  18.265  14.840
  218ETHO   H13 7878  14.378  18.419  14.867
  218ETHO    C2 7879  14.257  18.426  14.693
  218ETHO   H21 7880  14.162  18.389  14.650
  218ETHO   H23 7881  14.339  18.380  14.633
  219ETHO    O1 7882  14.268  18.573  14.674
  219ETHO    C1 7883  14.236  18.604  14.542
  219ETHO   H11 7884  14.308  18.554  14.473
  219ETHO   H13 7885  14.135  18.566  14.517
  219ETHO    C2 7886  14.248  18.757  14.507
  219ETHO   H21 7887  14.248  18.760  14.396
  219ETHO   H23 7888  14.342  18.804  14.543
  220ETHO    O1 7889  14.142  18.838  14.548
  220ETHO    C1 7890  14.137  18.867  14.685
  220ETHO   H11 7891  14.238  18.880  14.730
  220ETHO   H13 7892  14.088  18.784  14.740
  220ETHO    C2 7893  14.063  19.001  14.714
  220ETHO   H21 7894  14.115  19.090  14.672
  220ETHO   H23 7895  14.058  19.003  14.825
  221ETHO    O1 7896  13.928  18.997  14.675
  221ETHO    C1 7897  13.856  19.119  14.689
  221ETHO   H11 7898  13.929  19.202  14.679
  221ETHO   H13 7899  13.780  19.123  14.608
  221ETHO    C2 7900  13.785  19.121  14.825
  221ETHO   H21 7901  13.781  19.228  14.854
  221ETHO   H23 7902  13.845  19.064  14.899
  222ETHO    O1 7903  13.650  19.074  14.817
  222ETHO    C1 7904  13.589  19.092  14.948
  222ETHO   H11 7905  13.643  19.046  15.033
  222ETHO   H13 7906  13.576  19.199  14.976
  222ETHO    C2 7907  13.449  19.024  14.940
  222ETHO   H21 7908  13.380  19.093  14.887
  222ETHO   H23 7909  13.405  19.030  15.042
  223ETHO    O1 7910  13.451  18.893  14.889
  223ETHO    C1 7911  13.324  18.814  14.912
  223ETHO   H11 7912  13.341  18.717  14.965
  223ETHO   H13 7913  13.244  18.867  14.967
  223ETHO    C2 7914  13.261  18.779  14.775
  223ETHO   H21 7915  13.302  18.864  14.717
  223ETHO   H23 7916  13.151  18.777  14.789
  224ETHO    O1 7917  13.308  18.657  14.733
  224ETHO    C1 7918  13.276  18.635  14.594
  224ETHO   H11 7919  13.167  18.615  14.581
  224ETHO   H13 7920  13.295  18.725  14.532
  224ETHO    C2 7921  13.348  18.508  14.551
  224ETHO   H21 7922  13.323  18.479  14.446
  224ETHO   H23 7923  13.303  18.431  14.617
  225ETHO    O1 7924  13.493  18.508  14.563
  225ETHO    C1 7925  13.549  18.383  14.545
  225ETHO   H11 7926  13.519  18.338  14.447
  225ETHO   H13 7927  13.513  18.313  14.624
  225ETHO    C2 7928  13.692  18.403  14.555
  225ETHO   H21 7929  13.723  18.492  14.495
  225ETHO   H23 7930  13.753  18.323  14.507
  226ETHO    O1 7931  13.741  18.409  14.684
  226ETHO    C1 7932  13.867  18.488  14.685
  226ETHO   H11 7933  13.943  18.445  14.617
  226ETHO   H13 7934  13.856  18.593  14.651
  226ETHO    C2 7935  13.918  18.483  14.826
  226ETHO   H21 7936  14.012  18.541  14.833
  226ETHO   H23 7937  13.940  18.375  14.845
  227ETHO    O1 7938  13.818  18.531  14.915
  227ETHO    C1 7939  13.788  18.668  14.901
  227ETHO   H11 7940  13.684  18.663  14.863
  227ETHO   H13 7941  13.848  18.730  14.831
  227ETHO    C2 7942  13.789  18.729  15.043
  227ETHO   H21 7943  13.734  18.660  15.110
  227ETHO   H23 7944  13.750  18.833  15.043
  228ETHO    O1 7945  13.918  18.724  15.107
  228ETHO    C1 7946  13.998  18.829  15.065
  228ETHO   H11 7947  14.009  18.818  14.955
  228ETHO   H13 7948  13.942  18.925  15.073
  228ETHO    C2 7949  14.143  18.846  15.120
  228ETHO   H21 7950  14.179  18.745  15.149
  228ETHO   H23 7951  14.150  18.911  15.210
  229ETHO    O1 7952  14.234  18.890  15.016
  229ETHO    C1 7953  14.367  18.903  15.067
  229ETHO   H11 7954  14.371  18.886  15.177
  229ETHO   H13 7955  14.397  19.009  15.051
  229ETHO    C2 7956  14.469  18.813  14.983
  229ETHO   H21 7957  14.413  18.720  14.959
  229ETHO   H23 7958  14.554  18.797  15.053
  230ETHO    O1 7959  14.515  18.867  14.863
  230ETHO    C1 7960  14.551  18.765  14.769
  230ETHO   H11 7961  14.576  18.667  14.815
  230ETHO   H13 7962  14.463  18.749  14.704
  230ETHO    C2 7963  14.661  18.828  14.682
  230ETHO   H21 7964  14.628  18.932  14.661
  230ETHO   H23 7965  14.681  18.761  14.595
  231ETHO    O1 7966  14.775  18.826  14.761
  231ETHO    C1 7967  14.857  18.713  14.740
  231ETHO   H11 7968  14.882  18.709  14.632
  231ETHO   H13 7969  14.798  18.621  14.755
  231ETHO    C2 7970  14.977  18.698  14.826
  231ETHO   H21 7971  15.029  18.796  14.826
  231ETHO   H23 7972  15.041  18.622  14.776
  232ETHO    O1 7973  14.949  18.651  14.955
  232ETHO    C1 7974  14.850  18.731  15.031
  232ETHO   H11 7975  14.868  18.839  15.019
  232ETHO   H13 7976  14.751  18.699  14.994
  232ETHO    C2 7977  14.853  18.688  15.175
  232ETHO   H21 7978  14.869  18.579  15.182
  232ETHO   H23 7979  14.754  18.706  15.221
  233ETHO    O1 7980  14.958  18.756  15.239
  233ETHO    C1 7981  14.962  18.731  15.381
  233ETHO   H11 7982  14.856  18.729  15.413
  233ETHO   H13 7983  15.006  18.632  15.404
  233ETHO    C2 7984  15.030  18.843  15.463
  233ETHO   H21 7985  15.126  18.875  15.416
  233ETHO   H23 7986  15.044  18.809  15.568
  234ETHO    O1 7987  14.948  18.953  15.455
  234ETHO    C1 7988  14.968  19.036  15.573
  234ETHO   H11 7989  14.900  19.002  15.653
  234ETHO   H13 7990  15.071  19.018  15.611
  234ETHO    C2 7991  14.951  19.188  15.546
  234ETHO   H21 7992  14.884  19.222  15.627
  234ETHO   H23 7993  14.899  19.208  15.450
  235ETHO    O1 7994  15.074  19.268  15.551
  235ETHO    C1 7995  15.153  19.235  15.441
  235ETHO   H11 7996  15.190  19.133  15.460
  235ETHO   H13 7997  15.100  19.248  15.344
  235ETHO    C2 7998  15.270  19.331  15.448
  235ETHO   H21 7999  15.350  19.288  15.384
  235ETHO   H23 8000  15.310  19.342  15.551
  236ETHO    O1 8001  15.235  19.455  15.389
  236ETHO    C1 8002  15.189  19.558  15.486
  236ETHO   H11 8003  15.177  19.517  15.588
  236ETHO   H13 8004  15.098  19.592  15.434
  236ETHO    C2 8005  15.271  19.684  15.493
  236ETHO   H21 8006  15.205  19.758  15.544
  236ETHO   H23 8007  15.287  19.723  15.391
  237ETHO    O1 8008  15.393  19.670  15.570
  237ETHO    C1 8009  15.468  19.789  15.577
  237ETHO   H11 8010  15.473  19.846  15.481
  237ETHO   H13 8011  15.417  19.852  15.653
  237ETHO    C2 8012  15.605  19.749  15.616
  237ETHO   H21 8013  15.634  19.658  15.560
  237ETHO   H23 8014  15.611  19.727  15.725
  238ETHO    O1 8015  15.676  19.866  15.579
  238ETHO    C1 8016  15.816  19.855  15.592
  238ETHO   H11 8017  15.848  19.773  15.524
  238ETHO   H13 8018  15.839  19.820  15.694
  238ETHO    C2 8019  15.884  19.985  15.542
  238ETHO   H21 8020  15.857  20.011  15.437
  238ETHO   H23 8021  15.992  19.958  15.553
  239ETHO    O1 8022  15.853  20.081  15.630
  239ETHO    C1 8023  15.944  20.192  15.624
  239ETHO   H11 8024  15.934  20.242  15.722
  239ETHO   H13 8025  16.049  20.156  15.626
  239ETHO    C2 8026  15.925  20.286  15.505
  239ETHO   H21 8027  15.820  20.318  15.486
  239ETHO   H23 8028  15.980  20.380  15.525
  240ETHO    O1 8029  15.973  20.231  15.382
  240ETHO    C1 8030  15.960  20.320  15.267
  240ETHO   H11 8031  15.856  20.358  15.275
  240ETHO   H13 8032  15.957  20.260  15.174
  240ETHO    C2 8033  16.078  20.420  15.246
  240ETHO   H21 8034  16.114  20.451  15.347
  240ETHO   H23 8035  16.040  20.506  15.188
  241ETHO    O1 8036  16.178  20.352  15.175
  241ETHO    C1 8037  16.293  20.434  15.135
  241ETHO   H11 8038  16.340  20.486  15.221
  241ETHO   H13 8039  16.361  20.359  15.088
  241ETHO    C2 8040  16.262  20.519  15.014
  241ETHO   H21 8041  16.184  20.461  14.960
  241ETHO   H23 8042  16.354  20.526  14.952
  242ETHO    O1 8043  16.208  20.649  15.044
  242ETHO    C1 8044  16.202  20.731  14.931
  242ETHO   H11 8045  16.128  20.697  14.854
  242ETHO   H13 8046  16.302  20.738  14.884
  242ETHO    C2 8047  16.171  20.874  14.960
  242ETHO   H21 8048  16.079  20.896  15.018
  242ETHO   H23 8049  16.153  20.932  14.867
  243ETHO    O1 8050  16.272  20.934  15.043
  243ETHO    C1 8051  16.283  21.071  15.009
  243ETHO   H11 8052  16.344  21.063  14.916
  243ETHO   H13 8053  16.182  21.115  14.995
  243ETHO    C2 8054  16.355  21.159  15.124
  243ETHO   H21 8055  16.325  21.119  15.223
  243ETHO   H23 8056  16.333  21.267  15.108
  244ETHO    O1 8057  16.499  21.139  15.114
  244ETHO    C1 8058  16.570  21.213  15.213
  244ETHO   H11 8059  16.559  21.142  15.298
  244ETHO   H13 8060  16.504  21.299  15.239
  244ETHO    C2 8061  16.718  21.248  15.173
  244ETHO   H21 8062  16.766  21.159  15.127
  244ETHO   H23 8063  16.763  21.267  15.273
  245ETHO    O1 8064  16.750  21.359  15.096
  245ETHO    C1 8065  16.892  21.385  15.099
  245ETHO   H11 8066  16.899  21.496  15.096
  245ETHO   H13 8067  16.936  21.344  15.193
  245ETHO    C2 8068  16.964  21.318  14.977
  245ETHO   H21 8069  17.062  21.369  14.964
  245ETHO   H23 8070  16.907  21.353  14.888
  246ETHO    O1 8071  16.970  21.177  14.982
  246ETHO    C1 8072  17.101  21.132  15.031
  246ETHO   H11 8073  17.125  21.170  15.133
  246ETHO   H13 8074  17.176  21.173  14.960
  246ETHO    C2 8075  17.114  20.976  15.040
  246ETHO   H21 8076  17.221  20.948  15.029
  246ETHO   H23 8077  17.059  20.930  14.955
  247ETHO    O1 8078  17.062  20.926  15.159
  247ETHO    C1 8079  17.090  20.791  15.184
  247ETHO   H11 8080  17.060  20.742  15.089
  247ETHO   H13 8081  17.198  20.771  15.198
  247ETHO    C2 8082  17.017  20.744  15.303
  247ETHO   H21 8083  17.052  20.640  15.320
  247ETHO   H23 8084  17.036  20.809  15.391
  248ETHO    O1 8085  16.872  20.736  15.289
  248ETHO    C1 8086  16.825  20.660  15.393
  248ETHO   H11 8087  16.858  20.554  15.382
  248ETHO   H13 8088  16.876  20.699  15.483
  248ETHO    C2 8089  16.676  20.659  15.399
  248ETHO   H21 8090  16.637  20.560  15.431
  248ETHO   H23 8091  16.647  20.686  15.296
  249ETHO    O1 8092  16.616  20.765  15.477
  249ETHO    C1 8093  16.468  20.766  15.467
  249ETHO   H11 8094  16.446  20.760  15.358
  249ETHO   H13 8095  16.426  20.674  15.515
  249ETHO    C2 8096  16.416  20.894  15.540
  249ETHO   H21 8097  16.305  20.890  15.551
  249ETHO   H23 8098  16.445  20.988  15.487
  250ETHO    O1 8099  16.462  20.900  15.672
  250ETHO    C1 8100  16.429  21.016  15.734
  250ETHO   H11 8101  16.498  21.012  15.821
  250ETHO   H13 8102  16.464  21.100  15.670
  250ETHO    C2 8103  16.277  21.009  15.774
  250ETHO   H21 8104  16.277  21.052  15.876
  250ETHO   H23 8105  16.250  20.902  15.785
  251ETHO    O1 8106  16.190  21.083  15.683
  251ETHO    C1 8107  16.058  21.074  15.743
  251ETHO   H11 8108  16.049  21.142  15.831
  251ETHO   H13 8109  16.043  20.968  15.772
  251ETHO    C2 8110  15.944  21.118  15.643
  251ETHO   H21 8111  15.961  21.219  15.601
  251ETHO   H23 8112  15.841  21.107  15.684
  252ETHO    O1 8113  15.939  21.030  15.532
  252ETHO    C1 8114  15.828  21.052  15.437
  252ETHO   H11 8115  15.740  21.093  15.491
  252ETHO   H13 8116  15.849  21.128  15.359
  252ETHO    C2 8117  15.772  20.933  15.357
  252ETHO   H21 8118  15.854  20.874  15.313
  252ETHO   H23 8119  15.711  20.966  15.270
  253ETHO    O1 8120  15.699  20.848  15.445
  253ETHO    C1 8121  15.626  20.736  15.383
  253ETHO   H11 8122  15.680  20.675  15.307
  253ETHO   H13 8123  15.545  20.786  15.324
  253ETHO    C2 8124  15.559  20.651  15.485
  253ETHO   H21 8125  15.481  20.592  15.432
  253ETHO   H23 8126  15.504  20.723  15.549
  254ETHO    O1 8127  15.657  20.587  15.569
  254ETHO    C1 8128  15.585  20.498  15.655
  254ETHO   H11 8129  15.511  20.560  15.709
  254ETHO   H13 8130  15.529  20.421  15.598
  254ETHO    C2 8131  15.681  20.440  15.760
  254ETHO   H21 8132  15.775  20.498  15.770
  254ETHO   H23 8133  15.713  20.336  15.738
  255ETHO    O1 8134  15.616  20.433  15.889
  255ETHO    C1 8135  15.499  20.345  15.893
  255ETHO   H11 8136  15.465  20.307  15.794
  255ETHO   H13 8137  15.409  20.396  15.932
  255ETHO    C2 8138  15.517  20.229  15.989
  255ETHO   H21 8139  15.431  20.159  15.983
  255ETHO   H23 8140  15.527  20.259  16.095
  256ETHO    O1 8141  15.628  20.140  15.951
  256ETHO    C1 8142  15.621  20.019  16.025
  256ETHO   H11 8143  15.627  20.051  16.131
  256ETHO   H13 8144  15.529  19.961  16.001
  256ETHO    C2 8145  15.740  19.921  15.991
  256ETHO   H21 8146  15.729  19.897  15.883
  256ETHO   H23 8147  15.727  19.826  16.047
  257ETHO    O1 8148  15.870  19.965  16.027
  257ETHO    C1 8149  15.930  20.051  15.930
  257ETHO   H11 8150  15.844  20.110  15.893
  257ETHO   H13 8151  15.956  19.978  15.850
  257ETHO    C2 8152  16.055  20.121  15.979
  257ETHO   H21 8153  16.030  20.169  16.076
  257ETHO   H23 8154  16.075  20.198  15.902
  258ETHO    O1 8155  16.157  20.020  15.992
  258ETHO    C1 8156  16.278  20.084  16.022
  258ETHO   H11 8157  16.317  20.134  15.931
  258ETHO   H13 8158  16.254  20.161  16.098
  258ETHO    C2 8159  16.382  19.980  16.072
  258ETHO   H21 8160  16.381  19.899  15.996
  258ETHO   H23 8161  16.340  19.951  16.171
  259ETHO    O1 8162  16.504  20.037  16.093
  259ETHO    C1 8163  16.607  19.949  16.050
  259ETHO   H11 8164  16.606  19.929  15.941
  259ETHO   H13 8165  16.694  20.019  16.051
  259ETHO    C2 8166  16.642  19.828  16.138
  259ETHO   H21 8167  16.727  19.771  16.095
  259ETHO   H23 8168  16.556  19.757  16.138
  260ETHO    O1 8169  16.670  19.866  16.270
  260ETHO    C1 8170  16.704  19.752  16.346
  260ETHO   H11 8171  16.621  19.678  16.344
  260ETHO   H13 8172  16.797  19.718  16.296
  260ETHO    C2 8173  16.736  19.802  16.491
  260ETHO   H21 8174  16.763  19.710  16.547
  260ETHO   H23 8175  16.646  19.850  16.537
  261ETHO    O1 8176  16.839  19.904  16.482
  261ETHO    C1 8177  16.898  19.933  16.608
  261ETHO   H11 8178  16.813  19.940  16.679
  261ETHO   H13 8179  16.951  19.848  16.657
  261ETHO    C2 8180  16.966  20.066  16.601
  261ETHO   H21 8181  17.007  20.111  16.694
  261ETHO   H23 8182  16.899  20.141  16.555
  262ETHO    O1 8183  17.085  20.045  16.523
  262ETHO    C1 8184  17.191  19.995  16.601
  262ETHO   H11 8185  17.161  19.909  16.665
  262ETHO   H13 8186  17.218  20.082  16.664
  262ETHO    C2 8187  17.311  19.946  16.521
  262ETHO   H21 8188  17.392  19.933  16.595
  262ETHO   H23 8189  17.355  20.024  16.456
  263ETHO    O1 8190  17.294  19.811  16.476
  263ETHO    C1 8191  17.196  19.806  16.372
  263ETHO   H11 8192  17.192  19.902  16.315
  263ETHO   H13 8193  17.095  19.787  16.416
  263ETHO    C2 8194  17.217  19.693  16.273
  263ETHO   H21 8195  17.125  19.678  16.212
  263ETHO   H23 8196  17.234  19.597  16.327
  264ETHO    O1 8197  17.324  19.719  16.179
  264ETHO    C1 8198  17.326  19.610  16.088
  264ETHO   H11 8199  17.257  19.642  16.006
  264ETHO   H13 8200  17.289  19.520  16.141
  264ETHO    C2 8201  17.460  19.574  16.026
  264ETHO   H21 8202  17.451  19.491  15.952
  264ETHO   H23 8203  17.525  19.532  16.106
  265ETHO    O1 8204  17.526  19.682  15.964
  265ETHO    C1 8205  17.474  19.723  15.833
  265ETHO   H11 8206  17.530  19.654  15.765
  265ETHO   H13 8207  17.369  19.691  15.815
  265ETHO    C2 8208  17.499  19.870  15.790
  265ETHO   H21 8209  17.505  19.873  15.679
  265ETHO   H23 8210  17.594  19.899  15.839
  265ETHO    OZ 8211  17.401  19.963  15.838
  265ETHO   HZ1 8212  17.412  20.046  15.791
    1ETHO    O1 8213   6.684  16.638  13.248
    1ETHO   HO1 8214   6.769  16.628  13.204
    1ETHO    C1 8215   6.589  16.598  13.154
    1ETHO   H11 8216   6.593  16.638  13.051
    1ETHO   H13 8217   6.489  16.633  13.187
    1ETHO    C2 8218   6.595  16.443  13.138
    1ETHO   H21 8219   6.509  16.402  13.082
    1ETHO   H23 8220   6.585  16.395  13.238
    2ETHO    O1 8221   6.714  16.392  13.077
    2ETHO    C1 8222   6.735  16.250  13.101
    2ETHO   H11 8223   6.643  16.198  13.136
    2ETHO   H13 8224   6.780  16.195  13.015
    2ETHO    C2 8225   6.832  16.217  13.218
    2ETHO   H21 8226   6.826  16.107  13.225
    2ETHO   H23 8227   6.791  16.258  13.313
    3ETHO    O1 8228   6.967  16.258  13.188
    3ETHO    C1 8229   7.049  16.228  13.300
    3ETHO   H11 8230   7.108  16.137  13.276
    3ETHO   H13 8231   6.988  16.202  13.388
    3ETHO    C2 8232   7.151  16.340  13.335
    3ETHO   H21 8233   7.166  16.353  13.444
    3ETHO   H23 8234   7.110  16.433  13.290
    4ETHO    O1 8235   7.271  16.316  13.272
    4ETHO    C1 8236   7.379  16.387  13.333
    4ETHO   H11 8237   7.349  16.494  13.348
    4ETHO   H13 8238   7.410  16.334  13.425
    4ETHO    C2 8239   7.497  16.381  13.235
    4ETHO   H21 8240   7.505  16.279  13.191
    4ETHO   H23 8241   7.591  16.416  13.282
    5ETHO    O1 8242   7.470  16.468  13.130
    5ETHO    C1 8243   7.573  16.480  13.031
    5ETHO   H11 8244   7.622  16.576  13.060
    5ETHO   H13 8245   7.645  16.396  13.042
    5ETHO    C2 8246   7.524  16.500  12.886
    5ETHO   H21 8247   7.458  16.415  12.862
    5ETHO   H23 8248   7.604  16.498  12.809
    6ETHO    O1 8249   7.457  16.618  12.885
    6ETHO    C1 8250   7.405  16.643  12.757
    6ETHO   H11 8251   7.491  16.654  12.688
    6ETHO   H13 8252   7.333  16.560  12.739
    6ETHO    C2 8253   7.314  16.767  12.754
    6ETHO   H21 8254   7.223  16.737  12.811
    6ETHO   H23 8255   7.292  16.787  12.647
    7ETHO    O1 8256   7.384  16.870  12.815
    7ETHO    C1 8257   7.300  16.983  12.824
    7ETHO   H11 8258   7.259  16.997  12.722
    7ETHO   H13 8259   7.220  16.966  12.899
    7ETHO    C2 8260   7.374  17.115  12.859
    7ETHO   H21 8261   7.432  17.087  12.949
    7ETHO   H23 8262   7.296  17.184  12.900
    8ETHO    O1 8263   7.455  17.163  12.755
    8ETHO    C1 8264   7.538  17.264  12.806
    8ETHO   H11 8265   7.480  17.321  12.882
    8ETHO   H13 8266   7.573  17.329  12.723
    8ETHO    C2 8267   7.666  17.215  12.866
    8ETHO   H21 8268   7.754  17.243  12.803
    8ETHO   H23 8269   7.664  17.105  12.872
    9ETHO    O1 8270   7.691  17.264  13.003
    9ETHO    C1 8271   7.824  17.234  13.050
    9ETHO   H11 8272   7.899  17.216  12.970
    9ETHO   H13 8273   7.859  17.326  13.102
    9ETHO    C2 8274   7.823  17.116  13.145
    9ETHO   H21 8275   7.929  17.126  13.176
    9ETHO   H23 8276   7.791  17.016  13.109
   10ETHO    O1 8277   7.732  17.150  13.245
   10ETHO    C1 8278   7.734  17.056  13.352
   10ETHO   H11 8279   7.713  17.111  13.447
   10ETHO   H13 8280   7.837  17.017  13.367
   10ETHO    C2 8281   7.645  16.929  13.350
   10ETHO   H21 8282   7.670  16.867  13.438
   10ETHO   H23 8283   7.675  16.871  13.261
   11ETHO    O1 8284   7.504  16.957  13.341
   11ETHO    C1 8285   7.438  16.843  13.282
   11ETHO   H11 8286   7.479  16.831  13.180
   11ETHO   H13 8287   7.464  16.749  13.336
   11ETHO    C2 8288   7.285  16.846  13.274
   11ETHO   H21 8289   7.255  16.946  13.237
   11ETHO   H23 8290   7.252  16.771  13.198
   12ETHO    O1 8291   7.210  16.823  13.399
   12ETHO    C1 8292   7.071  16.844  13.372
   12ETHO   H11 8293   7.047  16.812  13.269
   12ETHO   H13 8294   7.054  16.953  13.383
   12ETHO    C2 8295   6.985  16.762  13.473
   12ETHO   H21 8296   7.016  16.659  13.444
   12ETHO   H23 8297   6.876  16.782  13.459
   13ETHO    O1 8298   7.015  16.782  13.615
   13ETHO    C1 8299   6.930  16.712  13.705
   13ETHO   H11 8300   6.826  16.741  13.677
   13ETHO   H13 8301   6.939  16.603  13.687
   13ETHO    C2 8302   6.967  16.751  13.844
   13ETHO   H21 8303   6.972  16.862  13.848
   13ETHO   H23 8304   7.074  16.723  13.856
   14ETHO    O1 8305   6.873  16.699  13.943
   14ETHO    C1 8306   6.941  16.683  14.068
   14ETHO   H11 8307   7.001  16.772  14.095
   14ETHO   H13 8308   7.003  16.591  14.079
   14ETHO    C2 8309   6.833  16.686  14.176
   14ETHO   H21 8310   6.892  16.649  14.263
   14ETHO   H23 8311   6.756  16.617  14.136
   15ETHO    O1 8312   6.769  16.806  14.196
   15ETHO    C1 8313   6.677  16.812  14.300
   15ETHO   H11 8314   6.597  16.737  14.276
   15ETHO   H13 8315   6.726  16.780  14.394
   15ETHO    C2 8316   6.619  16.951  14.310
   15ETHO   H21 8317   6.589  16.981  14.207
   15ETHO   H23 8318   6.530  16.947  14.377
   16ETHO    O1 8319   6.706  17.046  14.365
   16ETHO    C1 8320   6.643  17.170  14.380
   16ETHO   H11 8321   6.623  17.206  14.277
   16ETHO   H13 8322   6.542  17.148  14.421
   16ETHO    C2 8323   6.708  17.279  14.463
   16ETHO   H21 8324   6.734  17.237  14.563
   16ETHO   H23 8325   6.644  17.362  14.498
   17ETHO    O1 8326   6.820  17.351  14.412
   17ETHO    C1 8327   6.925  17.260  14.382
   17ETHO   H11 8328   6.936  17.179  14.457
   17ETHO   H13 8329   6.903  17.221  14.281
   17ETHO    C2 8330   7.057  17.331  14.374
   17ETHO   H21 8331   7.087  17.351  14.479
   17ETHO   H23 8332   7.052  17.426  14.318
   18ETHO    O1 8333   7.161  17.246  14.327
   18ETHO    C1 8334   7.276  17.322  14.299
   18ETHO   H11 8335   7.278  17.419  14.353
   18ETHO   H13 8336   7.346  17.241  14.326
   18ETHO    C2 8337   7.274  17.335  14.146
   18ETHO   H21 8338   7.245  17.239  14.097
   18ETHO   H23 8339   7.375  17.368  14.114
   19ETHO    O1 8340   7.187  17.439  14.100
   19ETHO    C1 8341   7.241  17.489  13.973
   19ETHO   H11 8342   7.151  17.514  13.913
   19ETHO   H13 8343   7.303  17.419  13.913
   19ETHO    C2 8344   7.314  17.625  13.990
   19ETHO   H21 8345   7.252  17.687  14.058
   19ETHO   H23 8346   7.330  17.669  13.889
   20ETHO    O1 8347   7.445  17.608  14.039
   20ETHO    C1 8348   7.505  17.737  14.055
   20ETHO   H11 8349   7.612  17.713  14.039
   20ETHO   H13 8350   7.460  17.807  13.982
   20ETHO    C2 8351   7.490  17.793  14.198
   20ETHO   H21 8352   7.555  17.880  14.222
   20ETHO   H23 8353   7.518  17.711  14.268
   21ETHO    O1 8354   7.355  17.832  14.238
   21ETHO    C1 8355   7.300  17.733  14.321
   21ETHO   H11 8356   7.366  17.708  14.407
   21ETHO   H13 8357   7.296  17.637  14.267
   21ETHO    C2 8358   7.157  17.772  14.364
   21ETHO   H21 8359   7.101  17.794  14.271
   21ETHO   H23 8360   7.165  17.860  14.431
   22ETHO    O1 8361   7.087  17.665  14.425
   22ETHO    C1 8362   6.945  17.696  14.433
   22ETHO   H11 8363   6.916  17.619  14.508
   22ETHO   H13 8364   6.920  17.794  14.478
   22ETHO    C2 8365   6.853  17.679  14.307
   22ETHO   H21 8366   6.877  17.577  14.270
   22ETHO   H23 8367   6.748  17.700  14.333
   23ETHO    O1 8368   6.882  17.772  14.196
   23ETHO    C1 8369   6.841  17.721  14.075
   23ETHO   H11 8370   6.731  17.707  14.069
   23ETHO   H13 8371   6.884  17.620  14.054
   23ETHO    C2 8372   6.895  17.800  13.955
   23ETHO   H21 8373   6.876  17.737  13.865
   23ETHO   H23 8374   7.006  17.800  13.966
   24ETHO    O1 8375   6.838  17.927  13.936
   24ETHO    C1 8376   6.928  18.015  13.869
   24ETHO   H11 8377   7.009  18.045  13.938
   24ETHO   H13 8378   6.965  17.967  13.775
   24ETHO    C2 8379   6.865  18.147  13.819
   24ETHO   H21 8380   6.793  18.193  13.890
   24ETHO   H23 8381   6.808  18.124  13.727
   25ETHO    O1 8382   6.970  18.237  13.778
   25ETHO    C1 8383   6.922  18.364  13.753
   25ETHO   H11 8384   6.915  18.399  13.859
   25ETHO   H13 8385   6.824  18.360  13.703
   25ETHO    C2 8386   7.020  18.457  13.682
   25ETHO   H21 8387   7.122  18.445  13.724
   25ETHO   H23 8388   6.998  18.561  13.713
   26ETHO    O1 8389   7.009  18.433  13.545
   26ETHO    C1 8390   7.129  18.463  13.475
   26ETHO   H11 8391   7.177  18.555  13.515
   26ETHO   H13 8392   7.202  18.380  13.488
   26ETHO    C2 8393   7.095  18.474  13.322
   26ETHO   H21 8394   7.030  18.385  13.307
   26ETHO   H23 8395   7.184  18.483  13.257
   27ETHO    O1 8396   7.006  18.588  13.305
   27ETHO    C1 8397   7.004  18.635  13.168
   27ETHO   H11 8398   7.105  18.629  13.123
   27ETHO   H13 8399   6.964  18.738  13.169
   27ETHO    C2 8400   6.898  18.562  13.076
   27ETHO   H21 8401   6.894  18.454  13.102
   27ETHO   H23 8402   6.929  18.561  12.970
   28ETHO    O1 8403   6.771  18.624  13.098
   28ETHO    C1 8404   6.662  18.527  13.083
   28ETHO   H11 8405   6.667  18.481  12.982
   28ETHO   H13 8406   6.674  18.454  13.165
   28ETHO    C2 8407   6.519  18.593  13.079
   28ETHO   H21 8408   6.453  18.515  13.036
   28ETHO   H23 8409   6.516  18.681  13.011
   29ETHO    O1 8410   6.475  18.628  13.212
   29ETHO    C1 8411   6.347  18.683  13.216
   29ETHO   H11 8412   6.280  18.622  13.281
   29ETHO   H13 8413   6.308  18.679  13.112
   29ETHO    C2 8414   6.338  18.833  13.256
   29ETHO   H21 8415   6.241  18.875  13.222
   29ETHO   H23 8416   6.417  18.889  13.201
   30ETHO    O1 8417   6.366  18.859  13.391
   30ETHO    C1 8418   6.329  18.993  13.421
   30ETHO   H11 8419   6.378  19.064  13.351
   30ETHO   H13 8420   6.221  19.010  13.400
   30ETHO    C2 8421   6.344  19.027  13.566
   30ETHO   H21 8422   6.331  19.137  13.557
   30ETHO   H23 8423   6.442  18.993  13.605
   31ETHO    O1 8424   6.231  18.970  13.630
   31ETHO    C1 8425   6.209  19.026  13.762
   31ETHO   H11 8426   6.275  18.977  13.836
   31ETHO   H13 8427   6.221  19.136  13.768
   31ETHO    C2 8428   6.063  19.013  13.822
   31ETHO   H21 8429   6.078  19.033  13.931
   31ETHO   H23 8430   6.026  18.908  13.820
   32ETHO    O1 8431   5.968  19.100  13.765
   32ETHO    C1 8432   5.839  19.063  13.805
   32ETHO   H11 8433   5.824  18.959  13.770
   32ETHO   H13 8434   5.818  19.060  13.914
   32ETHO    C2 8435   5.742  19.155  13.741
   32ETHO   H21 8436   5.642  19.110  13.759
   32ETHO   H23 8437   5.755  19.174  13.632
   33ETHO    O1 8438   5.754  19.277  13.816
   33ETHO    C1 8439   5.636  19.356  13.795
   33ETHO   H11 8440   5.659  19.464  13.782
   33ETHO   H13 8441   5.590  19.331  13.697
   33ETHO    C2 8442   5.529  19.337  13.903
   33ETHO   H21 8443   5.555  19.244  13.958
   33ETHO   H23 8444   5.429  19.312  13.864
   34ETHO    O1 8445   5.517  19.440  14.006
   34ETHO    C1 8446   5.383  19.476  14.035
   34ETHO   H11 8447   5.336  19.389  14.085
   34ETHO   H13 8448   5.322  19.480  13.942
   34ETHO    C2 8449   5.355  19.601  14.114
   34ETHO   H21 8450   5.405  19.587  14.213
   34ETHO   H23 8451   5.251  19.630  14.140
   35ETHO    O1 8452   5.397  19.712  14.041
   35ETHO    C1 8453   5.533  19.733  14.054
   35ETHO   H11 8454   5.543  19.741  14.165
   35ETHO   H13 8455   5.585  19.641  14.021
   35ETHO    C2 8456   5.580  19.870  13.983
   35ETHO   H21 8457   5.492  19.937  13.984
   35ETHO   H23 8458   5.595  19.835  13.879
   36ETHO    O1 8459   5.697  19.938  14.027
   36ETHO    C1 8460   5.771  19.989  13.923
   36ETHO   H11 8461   5.811  19.906  13.861
   36ETHO   H13 8462   5.862  20.038  13.964
   36ETHO    C2 8463   5.706  20.096  13.831
   36ETHO   H21 8464   5.784  20.147  13.770
   36ETHO   H23 8465   5.667  20.177  13.897
   37ETHO    O1 8466   5.608  20.048  13.744
   37ETHO    C1 8467   5.489  20.122  13.761
   37ETHO   H11 8468   5.461  20.116  13.868
   37ETHO   H13 8469   5.504  20.230  13.740
   37ETHO    C2 8470   5.383  20.067  13.670
   37ETHO   H21 8471   5.293  20.117  13.712
   37ETHO   H23 8472   5.385  19.957  13.689
   38ETHO    O1 8473   5.406  20.105  13.538
   38ETHO    C1 8474   5.323  20.026  13.442
   38ETHO   H11 8475   5.217  20.053  13.456
   38ETHO   H13 8476   5.326  19.919  13.472
   38ETHO    C2 8477   5.358  20.038  13.297
   38ETHO   H21 8478   5.305  19.971  13.226
   38ETHO   H23 8479   5.466  20.016  13.284
   39ETHO    O1 8480   5.337  20.173  13.251
   39ETHO    C1 8481   5.234  20.186  13.153
   39ETHO   H11 8482   5.266  20.135  13.060
   39ETHO   H13 8483   5.143  20.136  13.194
   39ETHO    C2 8484   5.212  20.340  13.128
   39ETHO   H21 8485   5.170  20.349  13.025
   39ETHO   H23 8486   5.315  20.381  13.120
   40ETHO    O1 8487   5.139  20.394  13.235
   40ETHO    C1 8488   5.133  20.537  13.230
   40ETHO   H11 8489   5.029  20.565  13.259
   40ETHO   H13 8490   5.151  20.587  13.133
   40ETHO    C2 8491   5.238  20.607  13.314
   40ETHO   H21 8492   5.248  20.564  13.416
   40ETHO   H23 8493   5.196  20.708  13.336
   41ETHO    O1 8494   5.361  20.607  13.239
   41ETHO    C1 8495   5.461  20.676  13.315
   41ETHO   H11 8496   5.417  20.765  13.364
   41ETHO   H13 8497   5.499  20.615  13.400
   41ETHO    C2 8498   5.579  20.712  13.236
   41ETHO   H21 8499   5.659  20.742  13.306
   41ETHO   H23 8500   5.556  20.795  13.167
   42ETHO    O1 8501   5.638  20.603  13.169
   42ETHO    C1 8502   5.730  20.642  13.072
   42ETHO   H11 8503   5.673  20.681  12.985
   42ETHO   H13 8504   5.802  20.719  13.108
   42ETHO    C2 8505   5.823  20.529  13.020
   42ETHO   H21 8506   5.883  20.498  13.109
   42ETHO   H23 8507   5.894  20.572  12.947
   43ETHO    O1 8508   5.768  20.408  12.966
   43ETHO    C1 8509   5.862  20.301  12.937
   43ETHO   H11 8510   5.946  20.343  12.877
   43ETHO   H13 8511   5.902  20.257  13.031
   43ETHO    C2 8512   5.782  20.198  12.860
   43ETHO   H21 8513   5.838  20.143  12.781
   43ETHO   H23 8514   5.698  20.249  12.808
   44ETHO    O1 8515   5.723  20.106  12.952
   44ETHO    C1 8516   5.637  20.014  12.883
   44ETHO   H11 8517   5.554  20.076  12.842
   44ETHO   H13 8518   5.695  19.970  12.799
   44ETHO    C2 8519   5.567  19.896  12.961
   44ETHO   H21 8520   5.495  19.845  12.893
   44ETHO   H23 8521   5.502  19.934  13.043
   45ETHO    O1 8522   5.648  19.800  13.028
   45ETHO    C1 8523   5.704  19.715  12.928
   45ETHO   H11 8524   5.774  19.772  12.863
   45ETHO   H13 8525   5.626  19.665  12.866
   45ETHO    C2 8526   5.787  19.607  13.003
   45ETHO   H21 8527   5.826  19.658  13.093
   45ETHO   H23 8528   5.862  19.551  12.944
   46ETHO    O1 8529   5.691  19.511  13.044
   46ETHO    C1 8530   5.745  19.387  13.091
   46ETHO   H11 8531   5.801  19.325  13.018
   46ETHO   H13 8532   5.807  19.409  13.181
   46ETHO    C2 8533   5.622  19.307  13.123
   46ETHO   H21 8534   5.637  19.198  13.138
   46ETHO   H23 8535   5.543  19.300  13.046
   47ETHO    O1 8536   5.549  19.359  13.232
   47ETHO    C1 8537   5.605  19.333  13.365
   47ETHO   H11 8538   5.705  19.284  13.370
   47ETHO   H13 8539   5.534  19.273  13.425
   47ETHO    C2 8540   5.612  19.467  13.441
   47ETHO   H21 8541   5.638  19.553  13.375
   47ETHO   H23 8542   5.694  19.449  13.514
   48ETHO    O1 8543   5.496  19.492  13.522
   48ETHO    C1 8544   5.473  19.633  13.531
   48ETHO   H11 8545   5.477  19.684  13.432
   48ETHO   H13 8546   5.374  19.644  13.581
   48ETHO    C2 8547   5.568  19.698  13.632
   48ETHO   H21 8548   5.517  19.788  13.674
   48ETHO   H23 8549   5.566  19.629  13.719
   49ETHO    O1 8550   5.691  19.737  13.588
   49ETHO    C1 8551   5.685  19.854  13.508
   49ETHO   H11 8552   5.605  19.925  13.540
   49ETHO   H13 8553   5.655  19.826  13.404
   49ETHO    C2 8554   5.816  19.936  13.503
   49ETHO   H21 8555   5.846  19.945  13.610
   49ETHO   H23 8556   5.810  20.037  13.457
   50ETHO    O1 8557   5.917  19.872  13.431
   50ETHO    C1 8558   6.033  19.952  13.434
   50ETHO   H11 8559   6.026  20.030  13.356
   50ETHO   H13 8560   6.035  20.013  13.527
   50ETHO    C2 8561   6.162  19.874  13.415
   50ETHO   H21 8562   6.245  19.948  13.409
   50ETHO   H23 8563   6.168  19.803  13.330
   51ETHO    O1 8564   6.187  19.787  13.526
   51ETHO    C1 8565   6.316  19.725  13.522
   51ETHO   H11 8566   6.389  19.805  13.546
   51ETHO   H13 8567   6.356  19.684  13.426
   51ETHO    C2 8568   6.339  19.616  13.627
   51ETHO   H21 8569   6.321  19.652  13.731
   51ETHO   H23 8570   6.449  19.598  13.631
   52ETHO    O1 8571   6.274  19.491  13.607
   52ETHO    C1 8572   6.136  19.498  13.642
   52ETHO   H11 8573   6.128  19.521  13.750
   52ETHO   H13 8574   6.086  19.576  13.580
   52ETHO    C2 8575   6.071  19.360  13.610
   52ETHO   H21 8576   5.966  19.368  13.644
   52ETHO   H23 8577   6.109  19.275  13.670
   53ETHO    O1 8578   6.077  19.344  13.464
   53ETHO    C1 8579   6.030  19.222  13.416
   53ETHO   H11 8580   6.089  19.152  13.478
   53ETHO   H13 8581   5.922  19.208  13.436
   53ETHO    C2 8582   6.053  19.212  13.262
   53ETHO   H21 8583   6.001  19.296  13.211
   53ETHO   H23 8584   6.004  19.119  13.225
   54ETHO    O1 8585   6.193  19.217  13.231
   54ETHO    C1 8586   6.207  19.202  13.087
   54ETHO   H11 8587   6.179  19.099  13.056
   54ETHO   H13 8588   6.140  19.276  13.039
   54ETHO    C2 8589   6.350  19.235  13.049
   54ETHO   H21 8590   6.385  19.316  13.118
   54ETHO   H23 8591   6.347  19.284  12.949
   55ETHO    O1 8592   6.432  19.120  13.055
   55ETHO    C1 8593   6.572  19.157  13.072
   55ETHO   H11 8594   6.597  19.232  12.994
   55ETHO   H13 8595   6.594  19.188  13.177
   55ETHO    C2 8596   6.647  19.027  13.060
   55ETHO   H21 8597   6.754  19.040  13.088
   55ETHO   H23 8598   6.598  18.936  13.102
   56ETHO    O1 8599   6.651  19.019  12.917
   56ETHO    C1 8600   6.703  18.897  12.872
   56ETHO   H11 8601   6.644  18.824  12.931
   56ETHO   H13 8602   6.804  18.884  12.915
   56ETHO    C2 8603   6.696  18.872  12.721
   56ETHO   H21 8604   6.741  18.956  12.664
   56ETHO   H23 8605   6.587  18.864  12.700
   57ETHO    O1 8606   6.767  18.754  12.681
   57ETHO    C1 8607   6.698  18.640  12.719
   57ETHO   H11 8608   6.702  18.624  12.829
   57ETHO   H13 8609   6.597  18.652  12.675
   57ETHO    C2 8610   6.769  18.526  12.645
   57ETHO   H21 8611   6.798  18.569  12.546
   57ETHO   H23 8612   6.693  18.450  12.622
   58ETHO    O1 8613   6.870  18.463  12.722
   58ETHO    C1 8614   6.997  18.499  12.666
   58ETHO   H11 8615   7.010  18.609  12.675
   58ETHO   H13 8616   6.987  18.478  12.558
   58ETHO    C2 8617   7.110  18.432  12.739
   58ETHO   H21 8618   7.206  18.436  12.684
   58ETHO   H23 8619   7.089  18.330  12.778
   59ETHO    O1 8620   7.125  18.511  12.857
   59ETHO    C1 8621   7.258  18.491  12.914
   59ETHO   H11 8622   7.243  18.485  13.024
   59ETHO   H13 8623   7.309  18.400  12.878
   59ETHO    C2 8624   7.352  18.609  12.893
   59ETHO   H21 8625   7.366  18.625  12.784
   59ETHO   H23 8626   7.447  18.583  12.943
   60ETHO    O1 8627   7.319  18.727  12.964
   60ETHO    C1 8628   7.209  18.799  12.903
   60ETHO   H11 8629   7.106  18.764  12.927
   60ETHO   H13 8630   7.204  18.799  12.792
   60ETHO    C2 8631   7.196  18.948  12.952
   60ETHO   H21 8632   7.286  19.009  12.932
   60ETHO   H23 8633   7.175  18.951  13.061
   61ETHO    O1 8634   7.091  18.997  12.865
   61ETHO    C1 8635   7.058  19.133  12.893
   61ETHO   H11 8636   6.998  19.126  12.986
   61ETHO   H13 8637   7.145  19.199  12.913
   61ETHO    C2 8638   6.959  19.192  12.787
   61ETHO   H21 8639   6.928  19.290  12.830
   61ETHO   H23 8640   6.870  19.127  12.788
   62ETHO    O1 8641   7.009  19.197  12.653
   62ETHO    C1 8642   6.922  19.272  12.565
   62ETHO   H11 8643   6.911  19.378  12.595
   62ETHO   H13 8644   6.818  19.233  12.569
   62ETHO    C2 8645   6.967  19.265  12.419
   62ETHO   H21 8646   6.991  19.165  12.378
   62ETHO   H23 8647   7.051  19.337  12.409
   63ETHO    O1 8648   6.848  19.321  12.362
   63ETHO    C1 8649   6.869  19.354  12.226
   63ETHO   H11 8650   6.958  19.417  12.204
   63ETHO   H13 8651   6.863  19.262  12.165
   63ETHO    C2 8652   6.755  19.446  12.181
   63ETHO   H21 8653   6.666  19.383  12.204
   63ETHO   H23 8654   6.775  19.465  12.074
   64ETHO    O1 8655   6.735  19.563  12.257
   64ETHO    C1 8656   6.648  19.663  12.193
   64ETHO   H11 8657   6.556  19.602  12.175
   64ETHO   H13 8658   6.690  19.696  12.095
   64ETHO    C2 8659   6.612  19.773  12.293
   64ETHO   H21 8660   6.581  19.865  12.239
   64ETHO   H23 8661   6.700  19.790  12.359
   65ETHO    O1 8662   6.497  19.733  12.372
   65ETHO    C1 8663   6.435  19.833  12.452
   65ETHO   H11 8664   6.498  19.847  12.543
   65ETHO   H13 8665   6.413  19.924  12.393
   65ETHO    C2 8666   6.288  19.794  12.513
   65ETHO   H21 8667   6.211  19.767  12.438
   65ETHO   H23 8668   6.248  19.871  12.582
   66ETHO    O1 8669   6.288  19.677  12.598
   66ETHO    C1 8670   6.283  19.557  12.523
   66ETHO   H11 8671   6.365  19.560  12.447
   66ETHO   H13 8672   6.187  19.553  12.468
   66ETHO    C2 8673   6.288  19.432  12.613
   66ETHO   H21 8674   6.356  19.456  12.697
   66ETHO   H23 8675   6.326  19.345  12.556
   67ETHO    O1 8676   6.161  19.403  12.668
   67ETHO    C1 8677   6.136  19.267  12.693
   67ETHO   H11 8678   6.228  19.236  12.748
   67ETHO   H13 8679   6.061  19.257  12.773
   67ETHO    C2 8680   6.110  19.184  12.559
   67ETHO   H21 8681   6.118  19.076  12.583
   67ETHO   H23 8682   6.190  19.214  12.488
   68ETHO    O1 8683   5.979  19.198  12.500
   68ETHO    C1 8684   5.949  19.079  12.426
   68ETHO   H11 8685   6.025  19.066  12.346
   68ETHO   H13 8686   5.957  18.986  12.487
   68ETHO    C2 8687   5.807  19.087  12.363
   68ETHO   H21 8688   5.795  19.012  12.283
   68ETHO   H23 8689   5.792  19.187  12.318
   69ETHO    O1 8690   5.725  19.069  12.476
   69ETHO    C1 8691   5.596  19.102  12.438
   69ETHO   H11 8692   5.599  19.204  12.393
   69ETHO   H13 8693   5.552  19.023  12.374
   69ETHO    C2 8694   5.504  19.116  12.563
   69ETHO   H21 8695   5.514  19.025  12.627
   69ETHO   H23 8696   5.399  19.125  12.529
   70ETHO    O1 8697   5.534  19.243  12.625
   70ETHO    C1 8698   5.451  19.269  12.733
   70ETHO   H11 8699   5.346  19.246  12.705
   70ETHO   H13 8700   5.495  19.212  12.817
   70ETHO    C2 8701   5.476  19.413  12.777
   70ETHO   H21 8702   5.585  19.420  12.801
   70ETHO   H23 8703   5.414  19.443  12.864
   71ETHO    O1 8704   5.457  19.516  12.680
   71ETHO    C1 8705   5.325  19.553  12.665
   71ETHO   H11 8706   5.270  19.542  12.761
   71ETHO   H13 8707   5.291  19.469  12.601
   71ETHO    C2 8708   5.289  19.680  12.590
   71ETHO   H21 8709   5.182  19.665  12.564
   71ETHO   H23 8710   5.344  19.692  12.495
   72ETHO    O1 8711   5.295  19.787  12.684
   72ETHO    C1 8712   5.307  19.910  12.610
   72ETHO   H11 8713   5.334  19.992  12.680
   72ETHO   H13 8714   5.391  19.898  12.538
   72ETHO    C2 8715   5.179  19.950  12.536
   72ETHO   H21 8716   5.138  19.863  12.481
   72ETHO   H23 8717   5.219  20.025  12.464
   73ETHO    O1 8718   5.075  20.007  12.622
   73ETHO    C1 8719   5.094  20.146  12.645
   73ETHO   H11 8720   5.095  20.200  12.548
   73ETHO   H13 8721   5.198  20.167  12.679
   73ETHO    C2 8722   5.010  20.204  12.756
   73ETHO   H21 8723   5.004  20.135  12.843
   73ETHO   H23 8724   4.902  20.213  12.730
   74ETHO    O1 8725   5.064  20.330  12.795
   74ETHO    C1 8726   4.965  20.413  12.854
   74ETHO   H11 8727   4.870  20.411  12.797
   74ETHO   H13 8728   4.943  20.377  12.957
   74ETHO    C2 8729   5.010  20.555  12.877
   74ETHO   H21 8730   5.119  20.560  12.898
   74ETHO   H23 8731   4.958  20.605  12.961
   75ETHO    O1 8732   4.975  20.636  12.766
   75ETHO    C1 8733   5.055  20.753  12.751
   75ETHO   H11 8734   5.084  20.793  12.851
   75ETHO   H13 8735   4.992  20.826  12.695
   75ETHO    C2 8736   5.184  20.712  12.671
   75ETHO   H21 8737   5.232  20.622  12.715
   75ETHO   H23 8738   5.252  20.800  12.671
   76ETHO    O1 8739   5.162  20.705  12.530
   76ETHO    C1 8740   5.268  20.636  12.461
   76ETHO   H11 8741   5.359  20.698  12.478
   76ETHO   H13 8742   5.291  20.539  12.509
   76ETHO    C2 8743   5.243  20.613  12.311
   76ETHO   H21 8744   5.342  20.579  12.275
   76ETHO   H23 8745   5.199  20.699  12.256
   77ETHO    O1 8746   5.149  20.508  12.293
   77ETHO    C1 8747   5.132  20.484  12.158
   77ETHO   H11 8748   5.235  20.464  12.124
   77ETHO   H13 8749   5.089  20.567  12.099
   77ETHO    C2 8750   5.050  20.358  12.142
   77ETHO   H21 8751   5.021  20.349  12.035
   77ETHO   H23 8752   4.962  20.388  12.204
   78ETHO    O1 8753   5.104  20.233  12.175
   78ETHO    C1 8754   5.178  20.168  12.070
   78ETHO   H11 8755   5.121  20.172  11.975
   78ETHO   H13 8756   5.273  20.220  12.048
   78ETHO    C2 8757   5.216  20.020  12.107
   78ETHO   H21 8758   5.243  19.962  12.016
   78ETHO   H23 8759   5.124  19.972  12.146
   79ETHO    O1 8760   5.323  20.004  12.202
   79ETHO    C1 8761   5.360  19.866  12.207
   79ETHO   H11 8762   5.286  19.823  12.278
   79ETHO   H13 8763   5.359  19.814  12.109
   79ETHO    C2 8764   5.498  19.853  12.272
   79ETHO   H21 8765   5.511  19.755  12.323
   79ETHO   H23 8766   5.503  19.930  12.353
   80ETHO    O1 8767   5.592  19.869  12.166
   80ETHO    C1 8768   5.726  19.875  12.212
   80ETHO   H11 8769   5.734  19.960  12.283
   80ETHO   H13 8770   5.744  19.786  12.276
   80ETHO    C2 8771   5.824  19.885  12.088
   80ETHO   H21 8772   5.902  19.959  12.117
   80ETHO   H23 8773   5.767  19.930  12.004
   81ETHO    O1 8774   5.880  19.760  12.044
   81ETHO    C1 8775   5.966  19.690  12.131
   81ETHO   H11 8776   6.065  19.708  12.083
   81ETHO   H13 8777   5.960  19.741  12.229
   81ETHO    C2 8778   5.935  19.541  12.153
   81ETHO   H21 8779   5.895  19.513  12.253
   81ETHO   H23 8780   5.863  19.516  12.072
   82ETHO    O1 8781   6.066  19.471  12.124
   82ETHO    C1 8782   6.056  19.324  12.152
   82ETHO   H11 8783   5.960  19.281  12.114
   82ETHO   H13 8784   6.055  19.302  12.260
   82ETHO    C2 8785   6.170  19.235  12.099
   82ETHO   H21 8786   6.197  19.269  11.997
   82ETHO   H23 8787   6.132  19.131  12.105
   83ETHO    O1 8788   6.286  19.249  12.180
   83ETHO    C1 8789   6.391  19.175  12.135
   83ETHO   H11 8790   6.360  19.088  12.074
   83ETHO   H13 8791   6.447  19.246  12.070
   83ETHO    C2 8792   6.470  19.122  12.257
   83ETHO   H21 8793   6.418  19.042  12.313
   83ETHO   H23 8794   6.472  19.213  12.321
   84ETHO    O1 8795   6.603  19.095  12.211
   84ETHO    C1 8796   6.695  19.048  12.310
   84ETHO   H11 8797   6.691  19.127  12.388
   84ETHO   H13 8798   6.794  19.061  12.262
   84ETHO    C2 8799   6.665  18.915  12.372
   84ETHO   H21 8800   6.571  18.930  12.429
   84ETHO   H23 8801   6.751  18.897  12.441
   85ETHO    O1 8802   6.652  18.811  12.276
   85ETHO    C1 8803   6.579  18.703  12.329
   85ETHO   H11 8804   6.601  18.695  12.437
   85ETHO   H13 8805   6.474  18.738  12.323
   85ETHO    C2 8806   6.613  18.568  12.256
   85ETHO   H21 8807   6.645  18.593  12.152
   85ETHO   H23 8808   6.519  18.507  12.254
   86ETHO    O1 8809   6.718  18.495  12.326
   86ETHO    C1 8810   6.744  18.370  12.263
   86ETHO   H11 8811   6.758  18.392  12.155
   86ETHO   H13 8812   6.654  18.313  12.294
   86ETHO    C2 8813   6.875  18.292  12.307
   86ETHO   H21 8814   6.869  18.185  12.279
   86ETHO   H23 8815   6.878  18.294  12.419
   87ETHO    O1 8816   6.998  18.347  12.265
   87ETHO    C1 8817   7.102  18.255  12.295
   87ETHO   H11 8818   7.105  18.236  12.405
   87ETHO   H13 8819   7.065  18.157  12.259
   87ETHO    C2 8820   7.243  18.287  12.238
   87ETHO   H21 8821   7.289  18.387  12.254
   87ETHO   H23 8822   7.229  18.269  12.129
   88ETHO    O1 8823   7.331  18.183  12.282
   88ETHO    C1 8824   7.454  18.191  12.216
   88ETHO   H11 8825   7.497  18.282  12.261
   88ETHO   H13 8826   7.444  18.221  12.109
   88ETHO    C2 8827   7.545  18.073  12.247
   88ETHO   H21 8828   7.519  18.011  12.336
   88ETHO   H23 8829   7.649  18.108  12.264
   89ETHO    O1 8830   7.542  17.998  12.126
   89ETHO    C1 8831   7.622  17.884  12.137
   89ETHO   H11 8832   7.723  17.919  12.165
   89ETHO   H13 8833   7.586  17.823  12.222
   89ETHO    C2 8834   7.625  17.794  12.013
   89ETHO   H21 8835   7.646  17.847  11.918
   89ETHO   H23 8836   7.530  17.740  11.995
   90ETHO    O1 8837   7.738  17.711  12.024
   90ETHO    C1 8838   7.740  17.612  11.922
   90ETHO   H11 8839   7.670  17.532  11.957
   90ETHO   H13 8840   7.695  17.660  11.832
   90ETHO    C2 8841   7.880  17.562  11.870
   90ETHO   H21 8842   7.951  17.640  11.835
   90ETHO   H23 8843   7.868  17.491  11.786
   91ETHO    O1 8844   7.962  17.488  11.969
   91ETHO    C1 8845   7.920  17.351  11.980
   91ETHO   H11 8846   7.815  17.326  12.006
   91ETHO   H13 8847   7.946  17.314  11.878
   91ETHO    C2 8848   8.005  17.270  12.080
   91ETHO   H21 8849   7.988  17.163  12.054
   91ETHO   H23 8850   7.954  17.296  12.174
   92ETHO    O1 8851   8.144  17.291  12.078
   92ETHO    C1 8852   8.205  17.204  12.166
   92ETHO   H11 8853   8.160  17.213  12.267
   92ETHO   H13 8854   8.190  17.099  12.133
   92ETHO    C2 8855   8.355  17.231  12.191
   92ETHO   H21 8856   8.377  17.168  12.280
   92ETHO   H23 8857   8.363  17.339  12.216
   93ETHO    O1 8858   8.452  17.205  12.080
   93ETHO    C1 8859   8.494  17.069  12.059
   93ETHO   H11 8860   8.413  17.008  12.013
   93ETHO   H13 8861   8.516  17.028  12.160
   93ETHO    C2 8862   8.616  17.072  11.962
   93ETHO   H21 8863   8.601  17.125  11.866
   93ETHO   H23 8864   8.630  16.964  11.938
   94ETHO    O1 8865   8.738  17.128  12.022
   94ETHO    C1 8866   8.855  17.097  11.949
   94ETHO   H11 8867   8.852  16.987  11.938
   94ETHO   H13 8868   8.848  17.148  11.850
   94ETHO    C2 8869   8.974  17.137  12.043
   94ETHO   H21 8870   8.945  17.216  12.115
   94ETHO   H23 8871   9.065  17.171  11.989
   95ETHO    O1 8872   9.024  17.032  12.123
   95ETHO    C1 8873   8.941  17.009  12.232
   95ETHO   H11 8874   8.843  16.966  12.199
   95ETHO   H13 8875   8.924  17.105  12.284
   95ETHO    C2 8876   9.008  16.910  12.336
   95ETHO   H21 8877   8.983  16.944  12.439
   95ETHO   H23 8878   9.116  16.933  12.352
   96ETHO    O1 8879   8.998  16.769  12.315
   96ETHO    C1 8880   9.060  16.728  12.193
   96ETHO   H11 8881   8.999  16.777  12.114
   96ETHO   H13 8882   9.163  16.768  12.190
   96ETHO    C2 8883   9.044  16.574  12.180
   96ETHO   H21 8884   9.068  16.569  12.071
   96ETHO   H23 8885   8.940  16.538  12.198
   97ETHO    O1 8886   9.139  16.492  12.248
   97ETHO    C1 8887   9.106  16.498  12.387
   97ETHO   H11 8888   8.997  16.483  12.405
   97ETHO   H13 8889   9.135  16.600  12.419
   97ETHO    C2 8890   9.172  16.399  12.484
   97ETHO   H21 8891   9.124  16.422  12.582
   97ETHO   H23 8892   9.280  16.423  12.485
   98ETHO    O1 8893   9.132  16.269  12.457
   98ETHO    C1 8894   9.229  16.207  12.366
   98ETHO   H11 8895   9.190  16.129  12.298
   98ETHO   H13 8896   9.274  16.283  12.299
   98ETHO    C2 8897   9.349  16.145  12.435
   98ETHO   H21 8898   9.392  16.202  12.520
   98ETHO   H23 8899   9.426  16.122  12.358
   99ETHO    O1 8900   9.310  16.020  12.500
   99ETHO    C1 8901   9.402  15.982  12.595
   99ETHO   H11 8902   9.379  16.059  12.672
   99ETHO   H13 8903   9.500  16.004  12.548
   99ETHO    C2 8904   9.377  15.850  12.663
   99ETHO   H21 8905   9.268  15.859  12.681
   99ETHO   H23 8906   9.443  15.842  12.752
  100ETHO    O1 8907   9.406  15.754  12.565
  100ETHO    C1 8908   9.360  15.630  12.605
  100ETHO   H11 8909   9.392  15.613  12.710
  100ETHO   H13 8910   9.250  15.619  12.604
  100ETHO    C2 8911   9.425  15.510  12.534
  100ETHO   H21 8912   9.389  15.414  12.577
  100ETHO   H23 8913   9.535  15.510  12.547
  101PROX    O1 8914   9.397  15.498  12.394
  101PROX    C1 8915   9.482  15.403  12.325
  101PROX   H11 8916   9.577  15.454  12.300
  101PROX   H13 8917   9.508  15.316  12.390
  101PROX    C2 8918   9.411  15.356  12.201
  101PROX   H21 8919   9.366  15.445  12.153
  101PROX    C3 8920   9.310  15.241  12.227
  101PROX   H31 8921   9.285  15.188  12.132
  101PROX   H32 8922   9.349  15.159  12.291
  101PROX   H33 8923   9.218  15.285  12.271
  102PROX    O1 8924   9.515  15.309  12.120
  102PROX    C1 8925   9.500  15.368  11.987
  102PROX   H11 8926   9.395  15.352  11.955
  102PROX   H13 8927   9.529  15.475  11.985
  102PROX    C2 8928   9.590  15.293  11.875
  102PROX   H21 8929   9.576  15.188  11.908
  102PROX    C3 8930   9.732  15.336  11.888
  102PROX   H31 8931   9.763  15.305  11.990
  102PROX   H32 8932   9.797  15.288  11.812
  102PROX   H33 8933   9.734  15.446  11.874
  103PROX    O1 8934   9.544  15.336  11.748
  103PROX    C1 8935   9.435  15.259  11.701
  103PROX   H11 8936   9.362  15.238  11.782
  103PROX   H13 8937   9.397  15.324  11.620
  103PROX    C2 8938   9.472  15.124  11.650
  103PROX   H21 8939   9.506  15.060  11.735
  103PROX    C3 8940   9.587  15.122  11.543
  103PROX   H31 8941   9.680  15.166  11.585
  103PROX   H32 8942   9.603  15.013  11.527
  103PROX   H33 8943   9.559  15.181  11.453
  104PROX    O1 8944   9.353  15.066  11.589
  104PROX    C1 8945   9.266  14.990  11.670
  104PROX   H11 8946   9.291  15.026  11.772
  104PROX   H13 8947   9.163  15.019  11.642
  104PROX    C2 8948   9.298  14.841  11.674
  104PROX   H21 8949   9.400  14.823  11.715
  104PROX    C3 8950   9.297  14.773  11.536
  104PROX   H31 8951   9.198  14.791  11.489
  104PROX   H32 8952   9.381  14.823  11.481
  104PROX   H33 8953   9.316  14.665  11.555
  105PROX    O1 8954   9.199  14.784  11.759
  105PROX    C1 8955   9.246  14.677  11.840
  105PROX   H11 8956   9.224  14.580  11.790
  105PROX   H13 8957   9.357  14.683  11.848
  105PROX    C2 8958   9.173  14.691  11.981
  105PROX   H21 8959   9.064  14.674  11.963
  105PROX    C3 8960   9.198  14.820  12.055
  105PROX   H31 8961   9.124  14.829  12.137
  105PROX   H32 8962   9.300  14.820  12.099
  105PROX   H33 8963   9.183  14.909  11.989
  106PROX    O1 8964   9.223  14.573  12.055
  106PROX    C1 8965   9.164  14.566  12.188
  106PROX   H11 8966   9.221  14.647  12.237
  106PROX   H13 8967   9.056  14.592  12.186
  106PROX    C2 8968   9.194  14.433  12.265
  106PROX   H21 8969   9.206  14.356  12.186
  106PROX    C3 8970   9.078  14.394  12.357
  106PROX   H31 8971   9.078  14.461  12.445
  106PROX   H32 8972   8.987  14.412  12.297
  106PROX   H33 8973   9.079  14.284  12.374
  107PROX    O1 8974   9.319  14.445  12.337
  107PROX    C1 8975   9.396  14.325  12.310
  107PROX   H11 8976   9.469  14.304  12.392
  107PROX   H13 8977   9.327  14.239  12.295
  107PROX    C2 8978   9.473  14.322  12.175
  107PROX   H21 8979   9.398  14.331  12.094
  107PROX    C3 8980   9.540  14.193  12.159
  107PROX   H31 8981   9.466  14.111  12.147
  107PROX   H32 8982   9.606  14.211  12.071
  107PROX   H33 8983   9.599  14.174  12.251
  108PROX    O1 8984   9.557  14.435  12.167
  108PROX    C1 8985   9.550  14.487  12.038
  108PROX   H11 8986   9.591  14.422  11.957
  108PROX   H13 8987   9.447  14.511  12.005
  108PROX    C2 8988   9.642  14.612  12.035
  108PROX   H21 8989   9.743  14.575  12.064
  108PROX    C3 8990   9.608  14.710  12.148
  108PROX   H31 8991   9.498  14.728  12.157
  108PROX   H32 8992   9.626  14.655  12.243
  108PROX   H33 8993   9.674  14.799  12.148
  109PROX    O1 8994   9.631  14.669  11.908
  109PROX    C1 8995   9.761  14.715  11.860
  109PROX   H11 8996   9.831  14.629  11.856
  109PROX   H13 8997   9.733  14.734  11.754
  109PROX    C2 8998   9.818  14.841  11.922
  109PROX   H21 8999   9.725  14.897  11.948
  109PROX    C3 9000   9.897  14.931  11.827
  109PROX   H31 9001   9.976  14.867  11.781
  109PROX   H32 9002   9.832  14.963  11.743
  109PROX   H33 9003   9.946  15.017  11.876
  110PROX    O1 9004   9.888  14.807  12.040
  110PROX    C1 9005  10.025  14.766  12.012
  110PROX   H11 9006  10.041  14.687  11.936
  110PROX   H13 9007  10.089  14.855  11.994
  110PROX    C2 9008  10.090  14.712  12.149
  110PROX   H21 9009  10.047  14.612  12.168
  110PROX    C3 9010  10.059  14.812  12.266
  110PROX   H31 9011  10.049  14.770  12.368
  110PROX   H32 9012  10.137  14.891  12.270
  110PROX   H33 9013   9.961  14.862  12.249
  111PROX    O1 9014  10.230  14.704  12.145
  111PROX    C1 9015  10.279  14.623  12.252
  111PROX   H11 9016  10.242  14.645  12.355
  111PROX   H13 9017  10.256  14.517  12.228
  111PROX    C2 9018  10.428  14.636  12.259
  111PROX   H21 9019  10.477  14.624  12.159
  111PROX    C3 9020  10.477  14.529  12.361
  111PROX   H31 9021  10.502  14.443  12.296
  111PROX   H32 9022  10.571  14.572  12.403
  111PROX   H33 9023  10.409  14.519  12.449
  112PROX    O1 9024  10.473  14.754  12.326
  112PROX    C1 9025  10.470  14.865  12.236
  112PROX   H11 9026  10.517  14.836  12.139
  112PROX   H13 9027  10.365  14.891  12.208
  112PROX    C2 9028  10.537  14.990  12.296
  112PROX   H21 9029  10.627  14.956  12.351
  112PROX    C3 9030  10.450  15.077  12.388
  112PROX   H31 9031  10.494  15.175  12.414
  112PROX   H32 9032  10.361  15.101  12.325
  112PROX   H33 9033  10.410  15.026  12.478
  113PROX    O1 9034  10.593  15.066  12.192
  113PROX    C1 9035  10.698  15.156  12.230
  113PROX   H11 9036  10.715  15.159  12.339
  113PROX   H13 9037  10.787  15.104  12.189
  113PROX    C2 9038  10.696  15.304  12.174
  113PROX   H21 9039  10.686  15.301  12.064
  113PROX    C3 9040  10.828  15.381  12.200
  113PROX   H31 9041  10.920  15.329  12.165
  113PROX   H32 9042  10.825  15.477  12.145
  113PROX   H33 9043  10.831  15.412  12.307
  114PROX    O1 9044  10.588  15.375  12.237
  114PROX    C1 9045  10.537  15.481  12.168
  114PROX   H11 9046  10.479  15.541  12.242
  114PROX   H13 9047  10.625  15.539  12.134
  114PROX    C2 9048  10.447  15.450  12.044
  114PROX   H21 9049  10.489  15.361  11.992
  114PROX    C3 9050  10.434  15.571  11.943
  114PROX   H31 9051  10.366  15.547  11.858
  114PROX   H32 9052  10.388  15.655  11.999
  114PROX   H33 9053  10.537  15.590  11.905
  115PROX    O1 9054  10.320  15.424  12.097
  115PROX    C1 9055  10.288  15.284  12.095
  115PROX   H11 9056  10.365  15.221  12.144
  115PROX   H13 9057  10.201  15.260  12.160
  115PROX    C2 9058  10.257  15.224  11.949
  115PROX   H21 9059  10.329  15.261  11.872
  115PROX    C3 9060  10.107  15.251  11.899
  115PROX   H31 9061  10.097  15.362  11.895
  115PROX   H32 9062  10.098  15.193  11.805
  115PROX   H33 9063  10.041  15.204  11.974
  116PROX    O1 9064  10.274  15.082  11.955
  116PROX    C1 9065  10.269  15.013  11.833
  116PROX   H11 9066  10.160  14.996  11.822
  116PROX   H13 9067  10.309  15.074  11.749
  116PROX    C2 9068  10.337  14.875  11.843
  116PROX   H21 9069  10.309  14.836  11.943
  116PROX    C3 9070  10.490  14.894  11.831
  116PROX   H31 9071  10.542  14.796  11.835
  116PROX   H32 9072  10.514  14.947  11.736
  116PROX   H33 9073  10.522  14.949  11.922
  117PROX    O1 9074  10.283  14.791  11.743
  117PROX    C1 9075  10.311  14.656  11.766
  117PROX   H11 9076  10.420  14.636  11.768
  117PROX   H13 9077  10.267  14.642  11.867
  117PROX    C2 9078  10.236  14.577  11.658
  117PROX   H21 9079  10.264  14.614  11.557
  117PROX    C3 9080  10.082  14.594  11.676
  117PROX   H31 9081  10.033  14.531  11.598
  117PROX   H32 9082  10.055  14.560  11.778
  117PROX   H33 9083  10.053  14.700  11.661
  118PROX    O1 9084  10.262  14.441  11.679
  118PROX    C1 9085  10.379  14.402  11.596
  118PROX   H11 9086  10.358  14.424  11.489
  118PROX   H13 9087  10.469  14.450  11.638
  118PROX    C2 9088  10.418  14.248  11.603
  118PROX   H21 9089  10.418  14.230  11.713
  118PROX    C3 9090  10.552  14.212  11.538
  118PROX   H31 9091  10.628  14.287  11.569
  118PROX   H32 9092  10.601  14.114  11.560
  118PROX   H33 9093  10.550  14.219  11.427
  119PROX    O1 9094  10.327  14.162  11.535
  119PROX    C1 9095  10.204  14.139  11.612
  119PROX   H11 9096  10.226  14.054  11.680
  119PROX   H13 9097  10.186  14.229  11.674
  119PROX    C2 9098  10.080  14.100  11.536
  119PROX   H21 9099  10.089  13.992  11.510
  119PROX    C3 9100  10.040  14.186  11.416
  119PROX   H31 9101   9.944  14.147  11.375
  119PROX   H32 9102  10.014  14.288  11.450
  119PROX   H33 9103  10.122  14.188  11.340
  120PROX    O1 9104   9.963  14.102  11.614
  120PROX    C1 9105   9.973  14.037  11.741
  120PROX   H11 9106  10.022  13.939  11.721
  120PROX   H13 9107  10.028  14.105  11.810
  120PROX    C2 9108   9.843  14.028  11.813
  120PROX   H21 9109   9.770  13.982  11.742
  120PROX    C3 9110   9.780  14.160  11.866
  120PROX   H31 9111   9.810  14.163  11.973
  120PROX   H32 9112   9.814  14.255  11.820
  120PROX   H33 9113   9.670  14.156  11.855
  121PROX    O1 9114   9.874  13.927  11.910
  121PROX    C1 9115   9.765  13.912  12.002
  121PROX   H11 9116   9.751  14.000  12.069
  121PROX   H13 9117   9.671  13.890  11.949
  121PROX    C2 9118   9.791  13.785  12.088
  121PROX   H21 9119   9.889  13.783  12.140
  121PROX    C3 9120   9.777  13.655  11.989
  121PROX   H31 9121   9.670  13.633  11.968
  121PROX   H32 9122   9.853  13.673  11.910
  121PROX   H33 9123   9.812  13.566  12.046
  122PROX    O1 9124   9.683  13.780  12.179
  122PROX    C1 9125   9.711  13.685  12.283
  122PROX   H11 9126   9.710  13.589  12.228
  122PROX   H13 9127   9.811  13.712  12.324
  122PROX    C2 9128   9.591  13.687  12.382
  122PROX   H21 9129   9.580  13.787  12.429
  122PROX    C3 9130   9.618  13.588  12.498
  122PROX   H31 9131   9.649  13.490  12.455
  122PROX   H32 9132   9.709  13.623  12.553
  122PROX   H33 9133   9.527  13.585  12.562
  123PROX    O1 9134   9.475  13.633  12.321
  123PROX    C1 9135   9.410  13.734  12.232
  123PROX   H11 9136   9.438  13.838  12.260
  123PROX   H13 9137   9.460  13.735  12.133
  123PROX    C2 9138   9.261  13.706  12.228
  123PROX   H21 9139   9.212  13.730  12.324
  123PROX    C3 9140   9.223  13.559  12.201
  123PROX   H31 9141   9.284  13.528  12.113
  123PROX   H32 9142   9.250  13.496  12.289
  123PROX   H33 9143   9.112  13.556  12.193
  124PROX    O1 9144   9.201  13.771  12.115
  124PROX    C1 9145   9.220  13.906  12.105
  124PROX   H11 9146   9.169  13.946  12.195
  124PROX   H13 9147   9.324  13.944  12.096
  124PROX    C2 9148   9.145  13.951  11.975
  124PROX   H21 9149   9.042  13.912  11.990
  124PROX    C3 9150   9.202  13.886  11.852
  124PROX   H31 9151   9.138  13.909  11.764
  124PROX   H32 9152   9.305  13.922  11.830
  124PROX   H33 9153   9.211  13.775  11.854
  125PROX    O1 9154   9.150  14.091  11.964
  125PROX    C1 9155   9.032  14.146  11.907
  125PROX   H11 9156   9.015  14.090  11.813
  125PROX   H13 9157   8.944  14.136  11.974
  125PROX    C2 9158   9.067  14.286  11.878
  125PROX   H21 9159   9.124  14.342  11.955
  125PROX    C3 9160   8.940  14.362  11.849
  125PROX   H31 9161   8.902  14.315  11.756
  125PROX   H32 9162   8.865  14.341  11.929
  125PROX   H33 9163   8.953  14.471  11.836
  126PROX    O1 9164   9.125  14.308  11.764
  126PROX    C1 9165   9.271  14.286  11.750
  126PROX   H11 9166   9.317  14.373  11.801
  126PROX   H13 9167   9.303  14.197  11.809
  126PROX    C2 9168   9.320  14.271  11.604
  126PROX   H21 9169   9.259  14.328  11.530
  126PROX    C3 9170   9.296  14.127  11.548
  126PROX   H31 9171   9.313  14.130  11.438
  126PROX   H32 9172   9.365  14.050  11.589
  126PROX   H33 9173   9.195  14.091  11.579
  127PROX    O1 9174   9.463  14.300  11.596
  127PROX    C1 9175   9.489  14.439  11.604
  127PROX   H11 9176   9.412  14.493  11.545
  127PROX   H13 9177   9.485  14.488  11.704
  127PROX    C2 9178   9.622  14.473  11.532
  127PROX   H21 9179   9.623  14.419  11.435
  127PROX    C3 9180   9.736  14.408  11.610
  127PROX   H31 9181   9.721  14.433  11.717
  127PROX   H32 9182   9.727  14.299  11.593
  127PROX   H33 9183   9.836  14.448  11.581
  128PROX    O1 9184   9.624  14.613  11.501
  128PROX    C1 9185   9.731  14.649  11.420
  128PROX   H11 9186   9.824  14.620  11.473
  128PROX   H13 9187   9.751  14.593  11.326
  128PROX    C2 9188   9.729  14.804  11.393
  128PROX   H21 9189   9.706  14.855  11.489
  128PROX    C3 9190   9.626  14.846  11.292
  128PROX   H31 9191   9.630  14.956  11.272
  128PROX   H32 9192   9.626  14.787  11.198
  128PROX   H33 9193   9.527  14.827  11.339
  129PROX    O1 9194   9.859  14.838  11.348
  129PROX    C1 9195   9.902  14.973  11.381
  129PROX   H11 9196   9.860  15.043  11.305
  129PROX   H13 9197   9.869  15.000  11.483
  129PROX    C2 9198  10.057  14.985  11.378
  129PROX   H21 9199  10.093  14.965  11.275
  129PROX    C3 9200  10.127  14.887  11.473
  129PROX   H31 9201  10.129  14.780  11.446
  129PROX   H32 9202  10.232  14.916  11.494
  129PROX   H33 9203  10.088  14.889  11.577
  130PROX    O1 9204  10.084  15.112  11.426
  130PROX    C1 9205  10.199  15.168  11.368
  130PROX   H11 9206  10.260  15.086  11.325
  130PROX   H13 9207  10.181  15.239  11.284
  130PROX    C2 9208  10.278  15.240  11.482
  130PROX   H21 9209  10.309  15.164  11.557
  130PROX    C3 9210  10.194  15.350  11.549
  130PROX   H31 9211  10.102  15.310  11.597
  130PROX   H32 9212  10.262  15.408  11.615
  130PROX   H33 9213  10.157  15.419  11.470
  131PROX    O1 9214  10.392  15.311  11.437
  131PROX    C1 9215  10.489  15.222  11.386
  131PROX   H11 9216  10.480  15.120  11.429
  131PROX   H13 9217  10.476  15.205  11.277
  131PROX    C2 9218  10.636  15.269  11.404
  131PROX   H21 9219  10.639  15.371  11.359
  131PROX    C3 9220  10.740  15.179  11.330
  131PROX   H31 9221  10.734  15.075  11.369
  131PROX   H32 9222  10.709  15.177  11.224
  131PROX   H33 9223  10.843  15.221  11.333
  132PROX    O1 9224  10.672  15.271  11.543
  132PROX    C1 9225  10.758  15.384  11.576
  132PROX   H11 9226  10.853  15.353  11.624
  132PROX   H13 9227  10.792  15.440  11.485
  132PROX    C2 9228  10.686  15.481  11.668
  132PROX   H21 9229  10.657  15.432  11.763
  132PROX    C3 9230  10.554  15.536  11.612
  132PROX   H31 9231  10.499  15.598  11.686
  132PROX   H32 9232  10.556  15.598  11.520
  132PROX   H33 9233  10.488  15.449  11.592
  133PROX    O1 9234  10.774  15.585  11.702
  133PROX    C1 9235  10.886  15.552  11.789
  133PROX   H11 9236  10.863  15.463  11.851
  133PROX   H13 9237  10.975  15.538  11.723
  133PROX    C2 9238  10.903  15.663  11.894
  133PROX   H21 9239  10.920  15.752  11.829
  133PROX    C3 9240  11.033  15.624  11.982
  133PROX   H31 9241  11.126  15.620  11.923
  133PROX   H32 9242  11.065  15.696  12.060
  133PROX   H33 9243  11.022  15.518  12.014
  134PROX    O1 9244  10.786  15.671  11.969
  134PROX    C1 9245  10.808  15.757  12.083
  134PROX   H11 9246  10.850  15.711  12.175
  134PROX   H13 9247  10.878  15.840  12.057
  134PROX    C2 9248  10.680  15.833  12.125
  134PROX   H21 9249  10.589  15.771  12.137
  134PROX    C3 9250  10.638  15.935  12.010
  134PROX   H31 9251  10.551  15.999  12.037
  134PROX   H32 9252  10.729  15.995  11.989
  134PROX   H33 9253  10.605  15.887  11.916
  135PROX    O1 9254  10.703  15.914  12.243
  135PROX    C1 9255  10.709  15.828  12.356
  135PROX   H11 9256  10.741  15.725  12.330
  135PROX   H13 9257  10.777  15.869  12.433
  135PROX    C2 9258  10.573  15.826  12.428
  135PROX   H21 9259  10.536  15.930  12.424
  135PROX    C3 9260  10.587  15.785  12.578
  135PROX   H31 9261  10.628  15.683  12.596
  135PROX   H32 9262  10.655  15.861  12.622
  135PROX   H33 9263  10.492  15.796  12.635
  136PROX    O1 9264  10.480  15.735  12.358
  136PROX    C1 9265  10.354  15.730  12.425
  136PROX   H11 9266  10.346  15.636  12.483
  136PROX   H13 9267  10.325  15.805  12.503
  136PROX    C2 9268  10.245  15.735  12.311
  136PROX   H21 9269  10.277  15.666  12.230
  136PROX    C3 9270  10.224  15.879  12.261
  136PROX   H31 9271  10.131  15.883  12.201
  136PROX   H32 9272  10.220  15.961  12.336
  136PROX   H33 9273  10.311  15.906  12.197
  137PROX    O1 9274  10.119  15.692  12.360
  137PROX    C1 9275  10.106  15.545  12.362
  137PROX   H11 9276  10.197  15.491  12.327
  137PROX   H13 9277  10.082  15.510  12.464
  137PROX    C2 9278   9.992  15.490  12.271
  137PROX   H21 9279  10.008  15.526  12.167
  137PROX    C3 9280   9.851  15.554  12.301
  137PROX   H31 9281   9.778  15.516  12.226
  137PROX   H32 9282   9.817  15.517  12.400
  137PROX   H33 9283   9.857  15.664  12.291
  138PROX    O1 9284   9.980  15.349  12.259
  138PROX    C1 9285   9.988  15.279  12.378
  138PROX   H11 9286  10.091  15.285  12.419
  138PROX   H13 9287   9.908  15.321  12.442
  138PROX    C2 9288   9.948  15.137  12.362
  138PROX   H21 9289  10.004  15.081  12.284
  138PROX    C3 9290   9.800  15.123  12.322
  138PROX   H31 9291   9.729  15.160  12.399
  138PROX   H32 9292   9.776  15.193  12.240
  138PROX   H33 9293   9.775  15.017  12.300
  139PROX    O1 9294   9.961  15.087  12.495
  139PROX    C1 9295  10.100  15.054  12.521
  139PROX   H11 9296  10.140  15.013  12.426
  139PROX   H13 9297  10.159  15.141  12.557
  139PROX    C2 9298  10.110  14.925  12.618
  139PROX   H21 9299  10.068  14.837  12.565
  139PROX    C3 9300  10.036  14.949  12.747
  139PROX   H31 9301  10.034  14.857  12.810
  139PROX   H32 9302  10.081  15.025  12.813
  139PROX   H33 9303   9.929  14.971  12.728
  140PROX    O1 9304  10.244  14.899  12.655
  140PROX    C1 9305  10.301  14.791  12.582
  140PROX   H11 9306  10.239  14.699  12.574
  140PROX   H13 9307  10.322  14.820  12.476
  140PROX    C2 9308  10.437  14.755  12.637
  140PROX   H21 9309  10.489  14.677  12.577
  140PROX    C3 9310  10.417  14.700  12.782
  140PROX   H31 9311  10.341  14.762  12.833
  140PROX   H32 9312  10.388  14.593  12.776
  140PROX   H33 9313  10.513  14.703  12.838
  141PROX    O1 9314  10.508  14.874  12.642
  141PROX    C1 9315  10.649  14.860  12.638
  141PROX   H11 9316  10.688  14.806  12.727
  141PROX   H13 9317  10.673  14.803  12.546
  141PROX    C2 9318  10.707  15.003  12.648
  141PROX   H21 9319  10.650  15.085  12.600
  141PROX    C3 9320  10.838  15.005  12.586
  141PROX   H31 9321  10.900  15.097  12.597
  141PROX   H32 9322  10.915  14.935  12.625
  141PROX   H33 9323  10.850  14.974  12.480
  142PROX    O1 9324  10.728  15.028  12.787
  142PROX    C1 9325  10.603  15.042  12.854
  142PROX   H11 9326  10.528  15.090  12.787
  142PROX   H13 9327  10.558  14.944  12.880
  142PROX    C2 9328  10.623  15.127  12.981
  142PROX   H21 9329  10.642  15.233  12.952
  142PROX    C3 9330  10.737  15.063  13.056
  142PROX   H31 9331  10.829  15.045  12.995
  142PROX   H32 9332  10.760  15.130  13.142
  142PROX   H33 9333  10.702  14.967  13.100
  143PROX    O1 9334  10.502  15.116  13.062
  143PROX    C1 9335  10.509  15.194  13.181
  143PROX   H11 9336  10.556  15.151  13.272
  143PROX   H13 9337  10.561  15.289  13.157
  143PROX    C2 9338  10.371  15.231  13.225
  143PROX   H21 9339  10.310  15.260  13.137
  143PROX    C3 9340  10.365  15.349  13.329
  143PROX   H31 9341  10.397  15.311  13.428
  143PROX   H32 9342  10.423  15.436  13.292
  143PROX   H33 9343  10.256  15.371  13.331
  144PROX    O1 9344  10.325  15.122  13.288
  144PROX    C1 9345  10.183  15.105  13.275
  144PROX   H11 9346  10.146  15.019  13.334
  144PROX   H13 9347  10.124  15.193  13.308
  144PROX    C2 9348  10.141  15.070  13.124
  144PROX   H21 9349  10.230  15.089  13.060
  144PROX    C3 9350  10.029  15.171  13.084
  144PROX   H31 9351  10.010  15.157  12.976
  144PROX   H32 9352   9.932  15.156  13.137
  144PROX   H33 9353  10.064  15.276  13.082
  145PROX    O1 9354  10.096  14.936  13.123
  145PROX    C1 9355  10.205  14.843  13.099
  145PROX   H11 9356  10.276  14.875  13.019
  145PROX   H13 9357  10.279  14.851  13.181
  145PROX    C2 9358  10.165  14.700  13.064
  145PROX   H21 9359  10.112  14.707  12.966
  145PROX    C3 9360  10.072  14.661  13.177
  145PROX   H31 9361  10.037  14.557  13.159
  145PROX   H32 9362  10.125  14.663  13.274
  145PROX   H33 9363   9.981  14.724  13.184
  146PROX    O1 9364  10.276  14.621  13.047
  146PROX    C1 9365  10.261  14.485  13.073
  146PROX   H11 9366  10.275  14.469  13.182
  146PROX   H13 9367  10.161  14.455  13.037
  146PROX    C2 9368  10.366  14.397  13.000
  146PROX   H21 9369  10.357  14.406  12.890
  146PROX    C3 9370  10.332  14.250  13.024
  146PROX   H31 9371  10.379  14.216  13.118
  146PROX   H32 9372  10.225  14.219  13.023
  146PROX   H33 9373  10.376  14.194  12.939
  147PROX    O1 9374  10.503  14.433  13.040
  147PROX    C1 9375  10.599  14.411  12.940
  147PROX   H11 9376  10.599  14.304  12.910
  147PROX   H13 9377  10.562  14.456  12.845
  147PROX    C2 9378  10.742  14.458  12.981
  147PROX   H21 9379  10.749  14.451  13.091
  147PROX    C3 9380  10.759  14.610  12.945
  147PROX   H31 9381  10.668  14.660  12.986
  147PROX   H32 9382  10.856  14.642  12.990
  147PROX   H33 9383  10.755  14.626  12.835
  148PROX    O1 9384  10.849  14.399  12.911
  148PROX    C1 9385  10.881  14.272  12.951
  148PROX   H11 9386  10.932  14.269  13.049
  148PROX   H13 9387  10.787  14.214  12.967
  148PROX    C2 9388  10.976  14.195  12.854
  148PROX   H21 9389  10.972  14.087  12.879
  148PROX    C3 9390  11.122  14.243  12.855
  148PROX   H31 9391  11.133  14.354  12.859
  148PROX   H32 9392  11.169  14.207  12.948
  148PROX   H33 9393  11.174  14.200  12.767
  149PROX    O1 9394  10.932  14.222  12.721
  149PROX    C1 9395  10.815  14.147  12.687
  149PROX   H11 9396  10.839  14.041  12.665
  149PROX   H13 9397  10.744  14.150  12.773
  149PROX    C2 9398  10.749  14.211  12.560
  149PROX   H21 9399  10.819  14.198  12.474
  149PROX    C3 9400  10.720  14.366  12.576
  149PROX   H31 9401  10.695  14.400  12.473
  149PROX   H32 9402  10.638  14.390  12.646
  149PROX   H33 9403  10.807  14.420  12.617
  150PROX    O1 9404  10.634  14.125  12.539
  150PROX    C1 9405  10.567  14.148  12.414
  150PROX   H11 9406  10.544  14.257  12.410
  150PROX   H13 9407  10.638  14.132  12.330
  150PROX    C2 9408  10.435  14.078  12.386
  150PROX   H21 9409  10.469  13.972  12.379
  150PROX    C3 9410  10.366  14.126  12.262
  150PROX   H31 9411  10.425  14.107  12.170
  150PROX   H32 9412  10.269  14.074  12.248
  150PROX   H33 9413  10.355  14.237  12.262
  151PROX    O1 9414  10.359  14.087  12.503
  151PROX    C1 9415  10.262  13.978  12.509
  151PROX   H11 9416  10.230  13.936  12.412
  151PROX   H13 9417  10.318  13.892  12.553
  151PROX    C2 9418  10.137  14.025  12.595
  151PROX   H21 9419  10.098  14.112  12.540
  151PROX    C3 9420  10.179  14.073  12.727
  151PROX   H31 9421  10.093  14.093  12.794
  151PROX   H32 9422  10.242  13.993  12.773
  151PROX   H33 9423  10.244  14.163  12.732
  152PROX    O1 9424  10.039  13.918  12.596
  152PROX    C1 9425   9.901  13.965  12.622
  152PROX   H11 9426   9.848  13.903  12.697
  152PROX   H13 9427   9.912  14.071  12.654
  152PROX    C2 9428   9.816  13.968  12.490
  152PROX   H21 9429   9.829  13.869  12.441
  152PROX    C3 9430   9.849  14.072  12.377
  152PROX   H31 9431   9.849  14.179  12.407
  152PROX   H32 9432   9.951  14.050  12.339
  152PROX   H33 9433   9.779  14.068  12.292
  153PROX    O1 9434   9.681  13.978  12.522
  153PROX    C1 9435   9.645  14.106  12.586
  153PROX   H11 9436   9.723  14.130  12.661
  153PROX   H13 9437   9.635  14.187  12.511
  153PROX    C2 9438   9.504  14.095  12.649
  153PROX   H21 9439   9.517  14.006  12.715
  153PROX    C3 9440   9.394  14.064  12.546
  153PROX   H31 9441   9.350  14.159  12.509
  153PROX   H32 9442   9.435  14.003  12.462
  153PROX   H33 9443   9.312  14.009  12.598
  154PROX    O1 9444   9.481  14.207  12.727
  154PROX    C1 9445   9.375  14.191  12.819
  154PROX   H11 9446   9.279  14.176  12.765
  154PROX   H13 9447   9.398  14.099  12.876
  154PROX    C2 9448   9.373  14.305  12.921
  154PROX   H21 9449   9.362  14.399  12.863
  154PROX    C3 9450   9.503  14.315  13.002
  154PROX   H31 9451   9.489  14.388  13.085
  154PROX   H32 9452   9.534  14.221  13.054
  154PROX   H33 9453   9.584  14.352  12.937
  155PROX    O1 9454   9.255  14.281  12.999
  155PROX    C1 9455   9.202  14.392  13.062
  155PROX   H11 9456   9.127  14.348  13.132
  155PROX   H13 9457   9.278  14.433  13.132
  155PROX    C2 9458   9.139  14.504  12.968
  155PROX   H21 9459   9.063  14.564  13.022
  155PROX    C3 9460   9.051  14.426  12.859
  155PROX   H31 9461   8.991  14.495  12.797
  155PROX   H32 9462   9.117  14.368  12.790
  155PROX   H33 9463   8.986  14.350  12.907
  156PROX    O1 9464   9.239  14.586  12.913
  156PROX    C1 9465   9.259  14.704  12.987
  156PROX   H11 9466   9.160  14.750  13.007
  156PROX   H13 9467   9.305  14.684  13.085
  156PROX    C2 9468   9.338  14.811  12.905
  156PROX   H21 9469   9.393  14.882  12.969
  156PROX    C3 9470   9.240  14.885  12.815
  156PROX   H31 9471   9.170  14.819  12.760
  156PROX   H32 9472   9.166  14.934  12.883
  156PROX   H33 9473   9.288  14.951  12.740
  157PROX    O1 9474   9.432  14.749  12.815
  157PROX    C1 9475   9.538  14.690  12.883
  157PROX   H11 9476   9.497  14.639  12.973
  157PROX   H13 9477   9.590  14.611  12.824
  157PROX    C2 9478   9.651  14.786  12.936
  157PROX   H21 9479   9.657  14.863  12.856
  157PROX    C3 9480   9.791  14.722  12.926
  157PROX   H31 9481   9.777  14.616  12.956
  157PROX   H32 9482   9.840  14.734  12.827
  157PROX   H33 9483   9.856  14.778  12.997
  158PROX    O1 9484   9.623  14.844  13.064
  158PROX    C1 9485   9.704  14.957  13.098
  158PROX   H11 9486   9.808  14.930  13.127
  158PROX   H13 9487   9.709  15.035  13.018
  158PROX    C2 9488   9.643  15.011  13.227
  158PROX   H21 9489   9.636  14.938  13.310
  158PROX    C3 9490   9.506  15.071  13.204
  158PROX   H31 9491   9.514  15.157  13.135
  158PROX   H32 9492   9.426  15.006  13.161
  158PROX   H33 9493   9.459  15.108  13.298
  159PROX    O1 9494   9.732  15.115  13.264
  159PROX    C1 9495   9.728  15.151  13.406
  159PROX   H11 9496   9.620  15.173  13.419
  159PROX   H13 9497   9.760  15.066  13.470
  159PROX    C2 9498   9.826  15.270  13.440
  159PROX   H21 9499   9.922  15.234  13.397
  159PROX    C3 9500   9.840  15.295  13.592
  159PROX   H31 9501   9.891  15.205  13.632
  159PROX   H32 9502   9.891  15.385  13.632
  159PROX   H33 9503   9.739  15.290  13.637
  160PROX    O1 9504   9.783  15.388  13.377
  160PROX    C1 9505   9.875  15.482  13.362
  160PROX   H11 9506   9.905  15.522  13.461
  160PROX   H13 9507   9.962  15.428  13.320
  160PROX    C2 9508   9.848  15.591  13.260
  160PROX   H21 9509   9.760  15.646  13.298
  160PROX    C3 9510   9.802  15.530  13.123
  160PROX   H31 9511   9.891  15.512  13.058
  160PROX   H32 9512   9.754  15.432  13.145
  160PROX   H33 9513   9.744  15.607  13.068
  161PROX    O1 9514   9.951  15.691  13.262
  161PROX    C1 9515  10.078  15.639  13.215
  161PROX   H11 9516  10.116  15.549  13.268
  161PROX   H13 9517  10.059  15.616  13.108
  161PROX    C2 9518  10.197  15.745  13.211
  161PROX   H21 9519  10.223  15.792  13.309
  161PROX    C3 9520  10.161  15.871  13.132
  161PROX   H31 9521  10.108  15.860  13.035
  161PROX   H32 9522  10.097  15.933  13.198
  161PROX   H33 9523  10.252  15.931  13.110
  162PROX    O1 9524  10.319  15.688  13.161
  162PROX    C1 9525  10.304  15.621  13.035
  162PROX   H11 9526  10.242  15.529  13.042
  162PROX   H13 9527  10.266  15.686  12.953
  162PROX    C2 9528  10.441  15.569  12.982
  162PROX   H21 9529  10.470  15.487  13.052
  162PROX    C3 9530  10.553  15.671  12.982
  162PROX   H31 9531  10.523  15.776  12.963
  162PROX   H32 9532  10.592  15.684  13.086
  162PROX   H33 9533  10.643  15.636  12.927
  163PROX    O1 9534  10.424  15.526  12.851
  163PROX    C1 9535  10.388  15.380  12.837
  163PROX   H11 9536  10.482  15.322  12.838
  163PROX   H13 9537  10.337  15.350  12.931
  163PROX    C2 9538  10.302  15.342  12.713
  163PROX   H21 9539  10.270  15.236  12.720
  163PROX    C3 9540  10.375  15.378  12.586
  163PROX   H31 9541  10.305  15.373  12.499
  163PROX   H32 9542  10.409  15.484  12.588
  163PROX   H33 9543  10.466  15.317  12.570
  164PROX    O1 9544  10.185  15.427  12.716
  164PROX    C1 9545  10.074  15.376  12.788
  164PROX   H11 9546  10.067  15.268  12.764
  164PROX   H13 9547  10.097  15.383  12.897
  164PROX    C2 9548   9.935  15.428  12.750
  164PROX   H21 9549   9.931  15.404  12.641
  164PROX    C3 9550   9.932  15.578  12.769
  164PROX   H31 9551   9.937  15.593  12.879
  164PROX   H32 9552  10.023  15.623  12.723
  164PROX   H33 9553   9.839  15.629  12.734
  165PROX    O1 9554   9.834  15.344  12.802
  165PROX    C1 9555   9.707  15.389  12.769
  165PROX   H11 9556   9.680  15.478  12.830
  165PROX   H13 9557   9.699  15.413  12.661
  165PROX    C2 9558   9.593  15.289  12.800
  165PROX   H21 9559   9.614  15.244  12.900
  165PROX    C3 9560   9.582  15.167  12.709
  165PROX   H31 9561   9.685  15.126  12.700
  165PROX   H32 9562   9.508  15.094  12.749
  165PROX   H33 9563   9.546  15.203  12.609
  166ETHO    O1 9564   9.469  15.360  12.806
  166ETHO    C1 9565   9.363  15.288  12.869
  166ETHO   H11 9566   9.394  15.241  12.965
  166ETHO   H13 9567   9.329  15.213  12.794
  166ETHO    C2 9568   9.250  15.381  12.905
  166ETHO   H21 9569   9.153  15.331  12.923
  166ETHO   H23 9570   9.223  15.449  12.821
  167ETHO    O1 9571   9.275  15.448  13.027
  167ETHO    C1 9572   9.396  15.528  13.033
  167ETHO   H11 9573   9.494  15.476  13.034
  167ETHO   H13 9574   9.387  15.599  12.948
  167ETHO    C2 9575   9.403  15.604  13.164
  167ETHO   H21 9576   9.494  15.666  13.153
  167ETHO   H23 9577   9.424  15.536  13.249
  168ETHO    O1 9578   9.296  15.702  13.178
  168ETHO    C1 9579   9.323  15.784  13.285
  168ETHO   H11 9580   9.420  15.838  13.279
  168ETHO   H13 9581   9.330  15.709  13.367
  168ETHO    C2 9582   9.212  15.881  13.311
  168ETHO   H21 9583   9.218  15.927  13.412
  168ETHO   H23 9584   9.115  15.827  13.309
  169ETHO    O1 9585   9.213  15.985  13.209
  169ETHO    C1 9586   9.093  16.062  13.225
  169ETHO   H11 9587   9.049  16.096  13.129
  169ETHO   H13 9588   9.015  16.001  13.275
  169ETHO    C2 9589   9.123  16.185  13.304
  169ETHO   H21 9590   9.175  16.164  13.400
  169ETHO   H23 9591   9.028  16.237  13.330
  170ETHO    O1 9592   9.206  16.261  13.219
  170ETHO    C1 9593   9.276  16.381  13.270
  170ETHO   H11 9594   9.343  16.350  13.353
  170ETHO   H13 9595   9.195  16.449  13.304
  170ETHO    C2 9596   9.362  16.440  13.154
  170ETHO   H21 9597   9.412  16.363  13.091
  170ETHO   H23 9598   9.434  16.509  13.201
  171ETHO    O1 9599   9.279  16.508  13.067
  171ETHO    C1 9600   9.318  16.648  13.060
  171ETHO   H11 9601   9.324  16.682  13.166
  171ETHO   H13 9602   9.416  16.658  13.009
  171ETHO    C2 9603   9.209  16.734  12.996
  171ETHO   H21 9604   9.219  16.841  13.023
  171ETHO   H23 9605   9.106  16.713  13.031
  172ETHO    O1 9606   9.200  16.709  12.858
  172ETHO    C1 9607   9.096  16.794  12.802
  172ETHO   H11 9608   9.141  16.874  12.740
  172ETHO   H13 9609   9.026  16.838  12.876
  172ETHO    C2 9610   9.003  16.729  12.700
  172ETHO   H21 9611   9.048  16.652  12.635
  172ETHO   H23 9612   8.969  16.813  12.635
  173ETHO    O1 9613   8.888  16.665  12.764
  173ETHO    C1 9614   8.781  16.641  12.675
  173ETHO   H11 9615   8.832  16.636  12.577
  173ETHO   H13 9616   8.751  16.537  12.698
  173ETHO    C2 9617   8.657  16.725  12.693
  173ETHO   H21 9618   8.580  16.691  12.621
  173ETHO   H23 9619   8.604  16.716  12.790
  174ETHO    O1 9620   8.688  16.863  12.670
  174ETHO    C1 9621   8.680  16.908  12.538
  174ETHO   H11 9622   8.780  16.901  12.490
  174ETHO   H13 9623   8.608  16.849  12.479
  174ETHO    C2 9624   8.632  17.052  12.528
  174ETHO   H21 9625   8.628  17.081  12.421
  174ETHO   H23 9626   8.691  17.115  12.597
  175ETHO    O1 9627   8.498  17.060  12.578
  175ETHO    C1 9628   8.464  17.190  12.628
  175ETHO   H11 9629   8.529  17.214  12.715
  175ETHO   H13 9630   8.485  17.260  12.544
  175ETHO    C2 9631   8.310  17.194  12.651
  175ETHO   H21 9632   8.288  17.286  12.709
  175ETHO   H23 9633   8.271  17.112  12.714
  176ETHO    O1 9634   8.235  17.203  12.531
  176ETHO    C1 9635   8.096  17.220  12.549
  176ETHO   H11 9636   8.078  17.309  12.613
  176ETHO   H13 9637   8.055  17.235  12.447
  176ETHO    C2 9638   8.015  17.111  12.624
  176ETHO   H21 9639   8.044  17.005  12.611
  176ETHO   H23 9640   7.906  17.101  12.608
  177ETHO    O1 9641   8.034  17.130  12.768
  177ETHO    C1 9642   8.022  17.009  12.842
  177ETHO   H11 9643   7.939  16.948  12.801
  177ETHO   H13 9644   8.007  17.035  12.949
  177ETHO    C2 9645   8.143  16.913  12.847
  177ETHO   H21 9646   8.188  16.912  12.745
  177ETHO   H23 9647   8.111  16.810  12.873
  178ETHO    O1 9648   8.247  16.961  12.928
  178ETHO    C1 9649   8.374  16.890  12.912
  178ETHO   H11 9650   8.352  16.781  12.919
  178ETHO   H13 9651   8.422  16.909  12.814
  178ETHO    C2 9652   8.457  16.939  13.030
  178ETHO   H21 9653   8.513  16.851  13.068
  178ETHO   H23 9654   8.391  16.967  13.115
  179ETHO    O1 9655   8.542  17.050  12.999
  179ETHO    C1 9656   8.471  17.175  13.015
  179ETHO   H11 9657   8.416  17.187  13.110
  179ETHO   H13 9658   8.403  17.175  12.928
  179ETHO    C2 9659   8.566  17.296  13.002
  179ETHO   H21 9660   8.505  17.389  12.998
  179ETHO   H23 9661   8.620  17.285  12.905
  180ETHO    O1 9662   8.657  17.319  13.114
  180ETHO    C1 9663   8.716  17.448  13.129
  180ETHO   H11 9664   8.791  17.456  13.047
  180ETHO   H13 9665   8.634  17.523  13.130
  180ETHO    C2 9666   8.795  17.455  13.257
  180ETHO   H21 9667   8.865  17.541  13.248
  180ETHO   H23 9668   8.844  17.357  13.274
  181ETHO    O1 9669   8.711  17.489  13.365
  181ETHO    C1 9670   8.769  17.518  13.488
  181ETHO   H11 9671   8.856  17.588  13.482
  181ETHO   H13 9672   8.806  17.416  13.511
  181ETHO    C2 9673   8.664  17.566  13.583
  181ETHO   H21 9674   8.572  17.505  13.569
  181ETHO   H23 9675   8.639  17.673  13.563
  182ETHO    O1 9676   8.704  17.565  13.718
  182ETHO    C1 9677   8.645  17.449  13.779
  182ETHO   H11 9678   8.661  17.457  13.889
  182ETHO   H13 9679   8.535  17.441  13.767
  182ETHO    C2 9680   8.693  17.303  13.718
  182ETHO   H21 9681   8.801  17.301  13.742
  182ETHO   H23 9682   8.679  17.313  13.608
  183ETHO    O1 9683   8.605  17.205  13.771
  183ETHO    C1 9684   8.676  17.078  13.769
  183ETHO   H11 9685   8.775  17.096  13.818
  183ETHO   H13 9686   8.706  17.036  13.671
  183ETHO    C2 9687   8.595  16.968  13.836
  183ETHO   H21 9688   8.522  16.918  13.768
  183ETHO   H23 9689   8.539  17.019  13.917
  184ETHO    O1 9690   8.674  16.853  13.895
  184ETHO    C1 9691   8.576  16.752  13.935
  184ETHO   H11 9692   8.515  16.789  14.020
  184ETHO   H13 9693   8.501  16.733  13.856
  184ETHO    C2 9694   8.656  16.640  13.990
  184ETHO   H21 9695   8.709  16.595  13.903
  184ETHO   H23 9696   8.573  16.576  14.028
  185ETHO    O1 9697   8.744  16.667  14.101
  185ETHO    C1 9698   8.788  16.547  14.161
  185ETHO   H11 9699   8.708  16.480  14.197
  185ETHO   H13 9700   8.848  16.489  14.088
  185ETHO    C2 9701   8.881  16.592  14.275
  185ETHO   H21 9702   8.961  16.658  14.237
  185ETHO   H23 9703   8.932  16.503  14.318
  186ETHO    O1 9704   8.810  16.652  14.387
  186ETHO    C1 9705   8.901  16.727  14.477
  186ETHO   H11 9706   8.983  16.771  14.417
  186ETHO   H13 9707   8.850  16.814  14.524
  186ETHO    C2 9708   8.941  16.630  14.588
  186ETHO   H21 9709   9.040  16.671  14.618
  186ETHO   H23 9710   8.940  16.527  14.548
  187ETHO    O1 9711   8.843  16.645  14.693
  187ETHO    C1 9712   8.726  16.563  14.675
  187ETHO   H11 9713   8.669  16.595  14.585
  187ETHO   H13 9714   8.740  16.453  14.672
  187ETHO    C2 9715   8.634  16.588  14.793
  187ETHO   H21 9716   8.527  16.587  14.763
  187ETHO   H23 9717   8.660  16.686  14.838
  188ETHO    O1 9718   8.652  16.492  14.893
  188ETHO    C1 9719   8.559  16.522  15.002
  188ETHO   H11 9720   8.543  16.422  15.046
  188ETHO   H13 9721   8.465  16.555  14.951
  188ETHO    C2 9722   8.592  16.624  15.107
  188ETHO   H21 9723   8.498  16.672  15.141
  188ETHO   H23 9724   8.661  16.697  15.060
  189ETHO    O1 9725   8.661  16.564  15.218
  189ETHO    C1 9726   8.707  16.660  15.315
  189ETHO   H11 9727   8.764  16.743  15.268
  189ETHO   H13 9728   8.617  16.696  15.368
  189ETHO    C2 9729   8.797  16.604  15.427
  189ETHO   H21 9730   8.819  16.691  15.493
  189ETHO   H23 9731   8.886  16.554  15.382
  190ETHO    O1 9732   8.719  16.510  15.496
  190ETHO    C1 9733   8.784  16.441  15.608
  190ETHO   H11 9734   8.882  16.414  15.564
  190ETHO   H13 9735   8.740  16.343  15.638
  190ETHO    C2 9736   8.783  16.526  15.739
  190ETHO   H21 9737   8.674  16.540  15.753
  190ETHO   H23 9738   8.824  16.625  15.713
  191ETHO    O1 9739   8.849  16.455  15.843
  191ETHO    C1 9740   8.755  16.405  15.943
  191ETHO   H11 9741   8.802  16.400  16.044
  191ETHO   H13 9742   8.666  16.470  15.950
  191ETHO    C2 9743   8.703  16.261  15.920
  191ETHO   H21 9744   8.676  16.249  15.812
  191ETHO   H23 9745   8.609  16.243  15.976
  192ETHO    O1 9746   8.803  16.159  15.953
  192ETHO    C1 9747   8.772  16.034  15.890
  192ETHO   H11 9748   8.768  16.037  15.779
  192ETHO   H13 9749   8.675  15.988  15.920
  192ETHO    C2 9750   8.878  15.937  15.930
  192ETHO   H21 9751   8.842  15.833  15.912
  192ETHO   H23 9752   8.907  15.950  16.036
  193ETHO    O1 9753   8.997  15.960  15.850
  193ETHO    C1 9754   9.091  15.854  15.845
  193ETHO   H11 9755   9.118  15.821  15.948
  193ETHO   H13 9756   9.044  15.763  15.804
  193ETHO    C2 9757   9.206  15.884  15.747
  193ETHO   H21 9758   9.170  15.946  15.662
  193ETHO   H23 9759   9.250  15.794  15.699
  194ETHO    O1 9760   9.305  15.967  15.802
  194ETHO    C1 9761   9.425  15.955  15.733
  194ETHO   H11 9762   9.399  15.973  15.627
  194ETHO   H13 9763   9.458  15.849  15.745
  194ETHO    C2 9764   9.531  16.057  15.779
  194ETHO   H21 9765   9.618  16.036  15.714
  194ETHO   H23 9766   9.554  16.051  15.887
  195ETHO    O1 9767   9.493  16.189  15.746
  195ETHO    C1 9768   9.602  16.278  15.771
  195ETHO   H11 9769   9.567  16.375  15.813
  195ETHO   H13 9770   9.677  16.235  15.840
  195ETHO    C2 9771   9.659  16.327  15.635
  195ETHO   H21 9772   9.711  16.244  15.583
  195ETHO   H23 9773   9.739  16.403  15.650
  196ETHO    O1 9774   9.564  16.393  15.547
  196ETHO    C1 9775   9.622  16.405  15.413
  196ETHO   H11 9776   9.733  16.407  15.417
  196ETHO   H13 9777   9.583  16.315  15.360
  196ETHO    C2 9778   9.579  16.528  15.331
  196ETHO   H21 9779   9.468  16.537  15.334
  196ETHO   H23 9780   9.607  16.533  15.224
  197ETHO    O1 9781   9.627  16.646  15.402
  197ETHO    C1 9782   9.570  16.756  15.339
  197ETHO   H11 9783   9.553  16.739  15.231
  197ETHO   H13 9784   9.475  16.789  15.387
  197ETHO    C2 9785   9.664  16.885  15.331
  197ETHO   H21 9786   9.715  16.896  15.429
  197ETHO   H23 9787   9.598  16.974  15.330
  198ETHO    O1 9788   9.753  16.869  15.222
  198ETHO    C1 9789   9.856  16.968  15.234
  198ETHO   H11 9790   9.813  17.069  15.250
  198ETHO   H13 9791   9.937  16.933  15.301
  198ETHO    C2 9792   9.932  16.973  15.099
  198ETHO   H21 9793   9.991  16.879  15.089
  198ETHO   H23 9794  10.012  17.046  15.123
  199ETHO    O1 9795   9.853  16.995  14.980
  199ETHO    C1 9796   9.941  16.996  14.863
  199ETHO   H11 9797  10.004  16.905  14.866
  199ETHO   H13 9798  10.006  17.085  14.878
  199ETHO    C2 9799   9.876  17.006  14.731
  199ETHO   H21 9800   9.951  17.045  14.658
  199ETHO   H23 9801   9.789  17.075  14.736
  200ETHO    O1 9802   9.825  16.878  14.697
  200ETHO    C1 9803   9.737  16.878  14.590
  200ETHO   H11 9804   9.642  16.920  14.630
  200ETHO   H13 9805   9.776  16.937  14.505
  200ETHO    C2 9806   9.709  16.735  14.539
  200ETHO   H21 9807   9.632  16.748  14.460
  200ETHO   H23 9808   9.673  16.668  14.620
  201ETHO    O1 9809   9.832  16.704  14.474
  201ETHO    C1 9810   9.834  16.565  14.434
  201ETHO   H11 9811   9.766  16.551  14.347
  201ETHO   H13 9812   9.795  16.502  14.518
  201ETHO    C2 9813   9.972  16.501  14.404
  201ETHO   H21 9814   9.976  16.397  14.442
  201ETHO   H23 9815  10.040  16.570  14.458
  202ETHO    O1 9816  10.003  16.505  14.261
  202ETHO    C1 9817  10.032  16.641  14.209
  202ETHO   H11 9818   9.977  16.722  14.262
  202ETHO   H13 9819  10.139  16.661  14.232
  202ETHO    C2 9820   9.985  16.651  14.066
  202ETHO   H21 9821  10.023  16.746  14.021
  202ETHO   H23 9822   9.875  16.661  14.053
  203ETHO    O1 9823  10.037  16.544  13.986
  203ETHO    C1 9824   9.965  16.536  13.860
  203ETHO   H11 9825   9.993  16.630  13.809
  203ETHO   H13 9826   9.856  16.516  13.864
  203ETHO    C2 9827  10.008  16.425  13.759
  203ETHO   H21 9828   9.951  16.443  13.665
  203ETHO   H23 9829   9.981  16.327  13.804
  204ETHO    O1 9830  10.154  16.444  13.740
  204ETHO    C1 9831  10.208  16.347  13.650
  204ETHO   H11 9832  10.190  16.243  13.683
  204ETHO   H13 9833  10.137  16.353  13.565
  204ETHO    C2 9834  10.352  16.405  13.619
  204ETHO   H21 9835  10.434  16.333  13.600
  204ETHO   H23 9836  10.383  16.462  13.709
  205ETHO    O1 9837  10.340  16.503  13.521
  205ETHO    C1 9838  10.446  16.484  13.422
  205ETHO   H11 9839  10.457  16.376  13.400
  205ETHO   H13 9840  10.542  16.509  13.472
  205ETHO    C2 9841  10.421  16.571  13.298
  205ETHO   H21 9842  10.506  16.544  13.231
  205ETHO   H23 9843  10.425  16.681  13.312
  206ETHO    O1 9844  10.290  16.535  13.240
  206ETHO    C1 9845  10.282  16.588  13.106
  206ETHO   H11 9846  10.322  16.691  13.097
  206ETHO   H13 9847  10.342  16.518  13.044
  206ETHO    C2 9848  10.132  16.579  13.066
  206ETHO   H21 9849  10.130  16.594  12.956
  206ETHO   H23 9850  10.088  16.477  13.078
  207ETHO    O1 9851  10.061  16.680  13.132
  207ETHO    C1 9852   9.921  16.658  13.104
  207ETHO   H11 9853   9.878  16.666  13.207
  207ETHO   H13 9854   9.889  16.556  13.074
  207ETHO    C2 9855   9.844  16.767  13.025
  207ETHO   H21 9856   9.895  16.865  13.038
  207ETHO   H23 9857   9.736  16.780  13.047
  208ETHO    O1 9858   9.852  16.748  12.883
  208ETHO    C1 9859   9.749  16.669  12.817
  208ETHO   H11 9860   9.700  16.593  12.881
  208ETHO   H13 9861   9.669  16.739  12.784
  208ETHO    C2 9862   9.810  16.592  12.702
  208ETHO   H21 9863   9.738  16.509  12.683
  208ETHO   H23 9864   9.906  16.545  12.734
  209ETHO    O1 9865   9.835  16.675  12.590
  209ETHO    C1 9866   9.859  16.614  12.462
  209ETHO   H11 9867   9.944  16.543  12.470
  209ETHO   H13 9868   9.887  16.697  12.393
  209ETHO    C2 9869   9.733  16.543  12.404
  209ETHO   H21 9870   9.692  16.480  12.486
  209ETHO   H23 9871   9.768  16.462  12.337
  210ETHO    O1 9872   9.639  16.625  12.337
  210ETHO    C1 9873   9.528  16.555  12.289
  210ETHO   H11 9874   9.561  16.463  12.237
  210ETHO   H13 9875   9.478  16.517  12.380
  210ETHO    C2 9876   9.439  16.627  12.187
  210ETHO   H21 9877   9.446  16.738  12.188
  210ETHO   H23 9878   9.337  16.593  12.215
  211ETHO    O1 9879   9.468  16.591  12.050
  211ETHO    C1 9880   9.411  16.672  11.955
  211ETHO   H11 9881   9.302  16.679  11.973
  211ETHO   H13 9882   9.454  16.775  11.947
  211ETHO    C2 9883   9.436  16.615  11.806
  211ETHO   H21 9884   9.384  16.694  11.748
  211ETHO   H23 9885   9.409  16.509  11.790
  212ETHO    O1 9886   9.578  16.614  11.791
  212ETHO    C1 9887   9.617  16.567  11.666
  212ETHO   H11 9888   9.588  16.461  11.649
  212ETHO   H13 9889   9.577  16.633  11.586
  212ETHO    C2 9890   9.769  16.569  11.649
  212ETHO   H21 9891   9.812  16.522  11.740
  212ETHO   H23 9892   9.802  16.675  11.644
  213ETHO    O1 9893   9.829  16.508  11.531
  213ETHO    C1 9894   9.948  16.568  11.483
  213ETHO   H11 9895   9.923  16.635  11.398
  213ETHO   H13 9896  10.007  16.614  11.565
  213ETHO    C2 9897  10.024  16.452  11.416
  213ETHO   H21 9898  10.116  16.502  11.379
  213ETHO   H23 9899   9.968  16.413  11.328
  214ETHO    O1 9900  10.065  16.339  11.490
  214ETHO    C1 9901  10.123  16.241  11.413
  214ETHO   H11 9902  10.164  16.162  11.480
  214ETHO   H13 9903  10.207  16.284  11.354
  214ETHO    C2 9904  10.033  16.171  11.303
  214ETHO   H21 9905  10.007  16.243  11.223
  214ETHO   H23 9906   9.941  16.123  11.343
  215ETHO    O1 9907  10.115  16.080  11.234
  215ETHO    C1 9908  10.036  16.013  11.135
  215ETHO   H11 9909   9.952  15.955  11.181
  215ETHO   H13 9910   9.997  16.094  11.071
  215ETHO    C2 9911  10.105  15.909  11.050
  215ETHO   H21 9912  10.202  15.960  11.028
  215ETHO   H23 9913  10.045  15.880  10.962
  216ETHO    O1 9914  10.134  15.786  11.116
  216ETHO    C1 9915  10.239  15.791  11.218
  216ETHO   H11 9916  10.196  15.831  11.312
  216ETHO   H13 9917  10.317  15.860  11.180
  216ETHO    C2 9918  10.304  15.650  11.242
  216ETHO   H21 9919  10.213  15.593  11.268
  216ETHO   H23 9920  10.364  15.657  11.336
  217ETHO    O1 9921  10.358  15.588  11.125
  217ETHO    C1 9922  10.486  15.547  11.142
  217ETHO   H11 9923  10.553  15.635  11.136
  217ETHO   H13 9924  10.491  15.492  11.238
  217ETHO    C2 9925  10.544  15.470  11.022
  217ETHO   H21 9926  10.647  15.450  11.060
  217ETHO   H23 9927  10.534  15.520  10.923
  218ETHO    O1 9928  10.484  15.339  11.012
  218ETHO    C1 9929  10.580  15.252  10.950
  218ETHO   H11 9930  10.680  15.259  10.997
  218ETHO   H13 9931  10.592  15.287  10.845
  218ETHO    C2 9932  10.538  15.104  10.941
  218ETHO   H21 9933  10.553  15.068  11.046
  218ETHO   H23 9934  10.607  15.044  10.878
  219ETHO    O1 9935  10.416  15.078  10.878
  219ETHO    C1 9936  10.316  15.040  10.972
  219ETHO   H11 9937  10.303  15.128  11.040
  219ETHO   H13 9938  10.223  15.028  10.912
  219ETHO    C2 9939  10.339  14.918  11.064
  219ETHO   H21 9940  10.387  14.843  10.998
  219ETHO   H23 9941  10.239  14.874  11.086
  220ETHO    O1 9942  10.405  14.945  11.185
  220ETHO    C1 9943  10.428  14.822  11.246
  220ETHO   H11 9944  10.480  14.747  11.182
  220ETHO   H13 9945  10.330  14.789  11.286
  220ETHO    C2 9946  10.524  14.850  11.365
  220ETHO   H21 9947  10.477  14.912  11.444
  220ETHO   H23 9948  10.615  14.909  11.341
  221ETHO    O1 9949  10.568  14.725  11.424
  221ETHO    C1 9950  10.680  14.744  11.516
  221ETHO   H11 9951  10.774  14.774  11.465
  221ETHO   H13 9952  10.666  14.818  11.598
  221ETHO    C2 9953  10.726  14.618  11.586
  221ETHO   H21 9954  10.827  14.632  11.630
  221ETHO   H23 9955  10.715  14.526  11.526
  222ETHO    O1 9956  10.656  14.587  11.704
  222ETHO    C1 9957  10.717  14.495  11.796
  222ETHO   H11 9958  10.735  14.398  11.744
  222ETHO   H13 9959  10.820  14.525  11.826
  222ETHO    C2 9960  10.633  14.471  11.928
  222ETHO   H21 9961  10.611  14.569  11.976
  222ETHO   H23 9962  10.696  14.407  11.994
  223ETHO    O1 9963  10.508  14.404  11.898
  223ETHO    C1 9964  10.424  14.422  12.002
  223ETHO   H11 9965  10.476  14.408  12.099
  223ETHO   H13 9966  10.378  14.523  12.009
  223ETHO    C2 9967  10.300  14.335  11.982
  223ETHO   H21 9968  10.341  14.233  11.996
  223ETHO   H23 9969  10.244  14.363  11.891
  224ETHO    O1 9970  10.211  14.348  12.092
  224ETHO    C1 9971  10.091  14.280  12.070
  224ETHO   H11 9972  10.074  14.256  11.962
  224ETHO   H13 9973  10.102  14.181  12.119
  224ETHO    C2 9974   9.968  14.355  12.124
  224ETHO   H21 9975   9.888  14.279  12.112
  224ETHO   H23 9976   9.940  14.440  12.058
  225ETHO    O1 9977   9.977  14.387  12.263
  225ETHO    C1 9978   9.871  14.468  12.298
  225ETHO   H11 9979   9.774  14.414  12.287
  225ETHO   H13 9980   9.868  14.565  12.245
  225ETHO    C2 9981   9.865  14.507  12.448
  225ETHO   H21 9982   9.963  14.547  12.484
  225ETHO   H23 9983   9.851  14.407  12.494
  226ETHO    O1 9984   9.758  14.590  12.494
  226ETHO    C1 9985   9.799  14.726  12.495
  226ETHO   H11 9986   9.877  14.742  12.572
  226ETHO   H13 9987   9.838  14.754  12.395
  226ETHO    C2 9988   9.689  14.826  12.531
  226ETHO   H21 9989   9.726  14.931  12.537
  226ETHO   H23 9990   9.655  14.805  12.635
  227ETHO    O1 9991   9.583  14.823  12.440
  227ETHO    C1 9992   9.478  14.912  12.489
  227ETHO   H11 9993   9.510  15.017  12.472
  227ETHO   H13 9994   9.463  14.895  12.598
  227ETHO    C2 9995   9.350  14.887  12.418
  227ETHO   H21 9996   9.317  14.782  12.434
  227ETHO   H23 9997   9.366  14.900  12.309
  228ETHO    O1 9998   9.249  14.978  12.458
  228ETHO    C1 9999   9.125  14.946  12.389
  228ETHO   H1110000   9.137  14.992  12.289
  228ETHO   H1310001   9.103  14.837  12.393
  228ETHO    C210002   9.011  15.018  12.465
  228ETHO   H2110003   9.021  14.982  12.570
  228ETHO   H2310004   8.916  14.972  12.432
  229ETHO    O110005   9.002  15.155  12.467
  229ETHO    C110006   9.084  15.222  12.568
  229ETHO   H1110007   9.189  15.188  12.568
  229ETHO   H1310008   9.052  15.193  12.671
  229ETHO    C210009   9.085  15.367  12.555
  229ETHO   H2110010   9.125  15.400  12.457
  229ETHO   H2310011   9.159  15.401  12.630
  230ETHO    O110012   8.954  15.426  12.572
  230ETHO    C110013   8.953  15.565  12.541
  230ETHO   H1110014   8.996  15.619  12.627
  230ETHO   H1310015   9.015  15.579  12.450
  230ETHO    C210016   8.811  15.615  12.506
  230ETHO   H2110017   8.767  15.559  12.421
  230ETHO   H2310018   8.822  15.720  12.472
  231ETHO    O110019   8.727  15.612  12.618
  231ETHO    C110020   8.581  15.629  12.593
  231ETHO   H1110021   8.524  15.544  12.637
  231ETHO   H1310022   8.571  15.647  12.484
  231ETHO    C210023   8.547  15.758  12.669
  231ETHO   H2110024   8.584  15.757  12.774
  231ETHO   H2310025   8.436  15.759  12.659
  232ETHO    O110026   8.608  15.871  12.614
  232ETHO    C110027   8.581  15.999  12.681
  232ETHO   H1110028   8.475  16.020  12.653
  232ETHO   H1310029   8.589  15.978  12.790
  232ETHO    C210030   8.673  16.115  12.637
  232ETHO   H2110031   8.782  16.095  12.638
  232ETHO   H2310032   8.661  16.192  12.716
  233ETHO    O110033   8.640  16.184  12.517
  233ETHO    C110034   8.717  16.302  12.499
  233ETHO   H1110035   8.707  16.380  12.578
  233ETHO   H1310036   8.825  16.277  12.489
  233ETHO    C210037   8.671  16.372  12.377
  233ETHO   H2110038   8.624  16.300  12.307
  233ETHO   H2310039   8.758  16.417  12.323
  234ETHO    O110040   8.588  16.482  12.406
  234ETHO    C110041   8.477  16.495  12.314
  234ETHO   H1110042   8.523  16.519  12.216
  234ETHO   H1310043   8.425  16.397  12.303
  234ETHO    C210044   8.387  16.609  12.356
  234ETHO   H2110045   8.353  16.587  12.459
  234ETHO   H2310046   8.299  16.607  12.288
  235ETHO    O110047   8.453  16.737  12.333
  235ETHO    C110048   8.380  16.852  12.389
  235ETHO   H1110049   8.375  16.847  12.500
  235ETHO   H1310050   8.443  16.940  12.367
  235ETHO    C210051   8.244  16.873  12.323
  235ETHO   H2110052   8.247  16.870  12.212
  235ETHO   H2310053   8.216  16.976  12.355
  236ETHO    O110054   8.132  16.790  12.370
  236ETHO    C110055   8.011  16.802  12.287
  236ETHO   H1110056   7.964  16.701  12.288
  236ETHO   H1310057   8.020  16.837  12.182
  236ETHO    C210058   7.903  16.887  12.359
  236ETHO   H2110059   7.813  16.895  12.294
  236ETHO   H2310060   7.941  16.991  12.365
  237ETHO    O110061   7.868  16.840  12.487
  237ETHO    C110062   7.730  16.838  12.523
  237ETHO   H1110063   7.728  16.799  12.627
  237ETHO   H1310064   7.694  16.943  12.535
  237ETHO    C210065   7.628  16.768  12.437
  237ETHO   H2110066   7.628  16.804  12.332
  237ETHO   H2310067   7.526  16.790  12.474
  238ETHO    O110068   7.648  16.625  12.453
  238ETHO    C110069   7.606  16.554  12.336
  238ETHO   H1110070   7.634  16.448  12.350
  238ETHO   H1310071   7.663  16.603  12.253
  238ETHO    C210072   7.452  16.569  12.315
  238ETHO   H2110073   7.428  16.540  12.210
  238ETHO   H2310074   7.416  16.674  12.322
  239ETHO    O110075   7.374  16.495  12.406
  239ETHO    C110076   7.240  16.507  12.380
  239ETHO   H1110077   7.203  16.609  12.407
  239ETHO   H1310078   7.226  16.500  12.270
  239ETHO    C210079   7.144  16.412  12.457
  239ETHO   H2110080   7.045  16.397  12.410
  239ETHO   H2310081   7.195  16.315  12.476
  240ETHO    O110082   7.111  16.464  12.587
  240ETHO    C110083   6.977  16.488  12.600
  240ETHO   H1110084   6.934  16.390  12.573
  240ETHO   H1310085   6.949  16.560  12.520
  240ETHO    C210086   6.936  16.556  12.731
  240ETHO   H2110087   6.983  16.503  12.817
  240ETHO   H2310088   6.828  16.530  12.741
  241ETHO    O110089   6.951  16.696  12.742
  241ETHO    C110090   6.929  16.725  12.874
  241ETHO   H1110091   6.835  16.673  12.902
  241ETHO   H1310092   7.009  16.676  12.934
  241ETHO    C210093   6.903  16.877  12.895
  241ETHO   H2110094   6.985  16.947  12.868
  241ETHO   H2310095   6.884  16.895  13.003
  242ETHO    O110096   6.783  16.922  12.822
  242ETHO    C110097   6.766  17.059  12.833
  242ETHO   H1110098   6.860  17.097  12.786
  242ETHO   H1310099   6.771  17.089  12.939
  242ETHO    C210100   6.651  17.108  12.748
  242ETHO   H2110101   6.647  17.040  12.660
  242ETHO   H2310102   6.658  17.216  12.719
  243ETHO    O110103   6.528  17.081  12.808
  243ETHO    C110104   6.424  17.124  12.726
  243ETHO   H1110105   6.451  17.098  12.621
  243ETHO   H1310106   6.347  17.050  12.758
  243ETHO    C210107   6.378  17.268  12.747
  243ETHO   H2110108   6.381  17.275  12.858
  243ETHO   H2310109   6.272  17.269  12.713
  244ETHO    O110110   6.459  17.361  12.677
  244ETHO    C110111   6.428  17.493  12.714
  244ETHO   H1110112   6.445  17.501  12.823
  244ETHO   H1310113   6.327  17.534  12.693
  244ETHO    C210114   6.533  17.594  12.664
  244ETHO   H2110115   6.507  17.687  12.718
  244ETHO   H2310116   6.549  17.614  12.556
  245ETHO    O110117   6.661  17.560  12.706
  245ETHO    C110118   6.751  17.668  12.693
  245ETHO   H1110119   6.755  17.719  12.594
  245ETHO   H1310120   6.719  17.743  12.768
  245ETHO    C210121   6.897  17.620  12.715
  245ETHO   H2110122   6.889  17.543  12.795
  245ETHO   H2310123   6.950  17.704  12.764
  246ETHO    O110124   6.969  17.580  12.601
  246ETHO    C110125   7.099  17.534  12.631
  246ETHO   H1110126   7.094  17.472  12.723
  246ETHO   H1310127   7.153  17.626  12.662
  246ETHO    C210128   7.166  17.468  12.514
  246ETHO   H2110129   7.099  17.416  12.443
  246ETHO   H2310130   7.250  17.413  12.560
  247ETHO    O110131   7.221  17.577  12.441
  247ETHO    C110132   7.288  17.539  12.326
  247ETHO   H1110133   7.380  17.488  12.363
  247ETHO   H1310134   7.228  17.466  12.269
  247ETHO    C210135   7.335  17.664  12.252
  247ETHO   H2110136   7.359  17.748  12.321
  247ETHO   H2310137   7.414  17.640  12.178
  248ETHO    O110138   7.225  17.713  12.179
  248ETHO    C110139   7.233  17.853  12.157
  248ETHO   H1110140   7.229  17.908  12.253
  248ETHO   H1310141   7.337  17.863  12.119
  248ETHO    C210142   7.133  17.915  12.055
  248ETHO   H2110143   7.137  17.867  11.955
  248ETHO   H2310144   7.170  18.015  12.028
  249ETHO    O110145   7.001  17.926  12.120
  249ETHO    C110146   6.896  17.943  12.029
  249ETHO   H1110147   6.900  18.048  11.994
  249ETHO   H1310148   6.907  17.879  11.938
  249ETHO    C210149   6.763  17.904  12.089
  249ETHO   H2110150   6.786  17.801  12.122
  249ETHO   H2310151   6.678  17.914  12.018
  250ETHO    O110152   6.725  17.988  12.195
  250ETHO    C110153   6.618  17.935  12.273
  250ETHO   H1110154   6.533  17.920  12.204
  250ETHO   H1310155   6.650  17.838  12.316
  250ETHO    C210156   6.577  18.018  12.392
  250ETHO   H2110157   6.491  17.972  12.446
  250ETHO   H2310158   6.558  18.116  12.344
  251ETHO    O110159   6.687  18.038  12.481
  251ETHO    C110160   6.651  18.105  12.599
  251ETHO   H1110161   6.570  18.041  12.641
  251ETHO   H1310162   6.633  18.214  12.585
  251ETHO    C210163   6.767  18.109  12.693
  251ETHO   H2110164   6.855  18.136  12.631
  251ETHO   H2310165   6.784  18.011  12.742
  252ETHO    O110166   6.731  18.196  12.800
  252ETHO    C110167   6.841  18.208  12.890
  252ETHO   H1110168   6.939  18.182  12.844
  252ETHO   H1310169   6.838  18.316  12.915
  252ETHO    C210170   6.826  18.136  13.025
  252ETHO   H2110171   6.819  18.027  13.005
  252ETHO   H2310172   6.733  18.165  13.078
  253ETHO    O110173   6.947  18.158  13.091
  253ETHO    C110174   6.952  18.073  13.204
  253ETHO   H1110175   6.929  17.970  13.170
  253ETHO   H1310176   6.874  18.100  13.278
  253ETHO    C210177   7.089  18.080  13.282
  253ETHO   H2110178   7.088  18.020  13.376
  253ETHO   H2310179   7.132  18.183  13.283
  254ETHO    O110180   7.171  17.991  13.199
  254ETHO    C110181   7.252  18.057  13.107
  254ETHO   H1110182   7.212  18.056  13.003
  254ETHO   H1310183   7.273  18.161  13.140
  254ETHO    C210184   7.374  17.977  13.129
  254ETHO   H2110185   7.392  17.925  13.226
  254ETHO   H2310186   7.459  18.038  13.094
  255ETHO    O110187   7.357  17.868  13.030
  255ETHO    C110188   7.473  17.799  13.000
  255ETHO   H1110189   7.500  17.751  13.097
  255ETHO   H1310190   7.552  17.874  12.978
  255ETHO    C210191   7.467  17.692  12.893
  255ETHO   H2110192   7.389  17.620  12.924
  255ETHO   H2310193   7.562  17.635  12.895
  256ETHO    O110194   7.456  17.762  12.769
  256ETHO    C110195   7.470  17.673  12.654
  256ETHO   H1110196   7.428  17.576  12.689
  256ETHO   H1310197   7.417  17.704  12.561
  256ETHO    C210198   7.617  17.661  12.623
  256ETHO   H2110199   7.667  17.629  12.716
  256ETHO   H2310200   7.655  17.762  12.598
  257ETHO    O110201   7.622  17.584  12.508
  257ETHO    C110202   7.760  17.567  12.472
  257ETHO   H1110203   7.820  17.527  12.556
  257ETHO   H1310204   7.812  17.661  12.441
  257ETHO    C210205   7.785  17.457  12.365
  257ETHO   H2110206   7.886  17.471  12.321
  257ETHO   H2310207   7.707  17.461  12.287
  258ETHO    O110208   7.795  17.325  12.416
  258ETHO    C110209   7.719  17.221  12.355
  258ETHO   H1110210   7.690  17.249  12.251
  258ETHO   H1310211   7.772  17.124  12.367
  258ETHO    C210212   7.584  17.185  12.432
  258ETHO   H2110213   7.522  17.275  12.454
  258ETHO   H2310214   7.612  17.145  12.532
  259ETHO    O110215   7.509  17.087  12.361
  259ETHO    C110216   7.378  17.074  12.411
  259ETHO   H1110217   7.356  16.967  12.394
  259ETHO   H1310218   7.370  17.085  12.521
  259ETHO    C210219   7.277  17.154  12.339
  259ETHO   H2110220   7.306  17.260  12.325
  259ETHO   H2310221   7.189  17.150  12.407
  260ETHO    O110222   7.229  17.093  12.222
  260ETHO    C110223   7.137  17.172  12.147
  260ETHO   H1110224   7.063  17.219  12.215
  260ETHO   H1310225   7.202  17.252  12.106
  260ETHO    C210226   7.069  17.078  12.047
  260ETHO   H2110227   7.143  17.008  12.002
  260ETHO   H2310228   7.032  17.148  11.969
  261ETHO    O110229   6.963  16.994  12.096
  261ETHO    C110230   6.927  16.886  12.012
  261ETHO   H1110231   7.006  16.808  12.009
  261ETHO   H1310232   6.838  16.837  12.057
  261ETHO    C210233   6.879  16.947  11.877
  261ETHO   H2110234   6.805  17.028  11.893
  261ETHO   H2310235   6.817  16.870  11.826
  262ETHO    O110236   6.983  16.969  11.785
  262ETHO    C110237   6.929  16.993  11.652
  262ETHO   H1110238   6.855  17.076  11.663
  262ETHO   H1310239   6.887  16.900  11.608
  262ETHO    C210240   7.033  17.055  11.554
  262ETHO   H2110241   7.058  17.155  11.595
  262ETHO   H2310242   6.983  17.060  11.455
  263ETHO    O110243   7.153  16.979  11.532
  263ETHO    C110244   7.241  17.056  11.443
  263ETHO   H1110245   7.341  17.009  11.454
  263ETHO   H1310246   7.247  17.158  11.488
  263ETHO    C210247   7.207  17.063  11.297
  263ETHO   H2110248   7.160  16.968  11.262
  263ETHO   H2310249   7.296  17.075  11.233
  264ETHO    O110250   7.121  17.174  11.282
  264ETHO    C110251   7.076  17.188  11.150
  264ETHO   H1110252   7.025  17.094  11.118
  264ETHO   H1310253   7.166  17.208  11.089
  264ETHO    C210254   6.985  17.316  11.141
  264ETHO   H2110255   6.970  17.337  11.033
  264ETHO   H2310256   7.046  17.398  11.184
  265ETHO    O110257   6.870  17.300  11.224
  265ETHO    C110258   6.788  17.416  11.220
  265ETHO   H1110259   6.834  17.503  11.271
  265ETHO   H1310260   6.774  17.451  11.115
  265ETHO    C210261   6.656  17.392  11.290
  265ETHO   H2110262   6.622  17.485  11.340
  265ETHO   H2310263   6.673  17.325  11.377
  265ETHO    OZ10264   6.547  17.346  11.208
  265ETHO   HZ110265   6.476  17.410  11.219
    1ETHO    O110266  16.964  17.942   6.987
    1ETHO   HO110267  16.967  18.038   6.990
    1ETHO    C110268  17.095  17.897   7.001
    1ETHO   H1110269  17.121  17.885   7.109
    1ETHO   H1310270  17.173  17.964   6.959
    1ETHO    C210271  17.119  17.759   6.927
    1ETHO   H2110272  17.194  17.777   6.847
    1ETHO   H2310273  17.031  17.725   6.869
    2ETHO    O110274  17.153  17.661   7.027
    2ETHO    C110275  17.152  17.528   6.973
    2ETHO   H1110276  17.231  17.540   6.896
    2ETHO   H1310277  17.197  17.469   7.056
    2ETHO    C210278  17.016  17.473   6.925
    2ETHO   H2110279  17.034  17.365   6.905
    2ETHO   H2310280  16.976  17.523   6.835
    3ETHO    O110281  16.916  17.481   7.021
    3ETHO    C110282  16.788  17.436   6.967
    3ETHO   H1110283  16.819  17.338   6.923
    3ETHO   H1310284  16.746  17.497   6.885
    3ETHO    C210285  16.694  17.402   7.086
    3ETHO   H2110286  16.761  17.379   7.171
    3ETHO   H2310287  16.638  17.308   7.067
    4ETHO    O110288  16.609  17.512   7.103
    4ETHO    C110289  16.527  17.505   7.221
    4ETHO   H1110290  16.452  17.586   7.212
    4ETHO   H1310291  16.467  17.411   7.214
    4ETHO    C210292  16.595  17.536   7.356
    4ETHO   H2110293  16.512  17.543   7.430
    4ETHO   H2310294  16.646  17.634   7.351
    5ETHO    O110295  16.675  17.428   7.410
    5ETHO    C110296  16.716  17.444   7.549
    5ETHO   H1110297  16.752  17.549   7.558
    5ETHO   H1310298  16.627  17.420   7.610
    5ETHO    C210299  16.832  17.353   7.582
    5ETHO   H2110300  16.868  17.370   7.686
    5ETHO   H2310301  16.916  17.381   7.515
    6ETHO    O110302  16.789  17.220   7.561
    6ETHO    C110303  16.703  17.171   7.662
    6ETHO   H1110304  16.707  17.242   7.748
    6ETHO   H1310305  16.599  17.191   7.629
    6ETHO    C210306  16.723  17.022   7.691
    6ETHO   H2110307  16.711  16.966   7.596
    6ETHO   H2310308  16.648  16.991   7.766
    7ETHO    O110309  16.851  17.010   7.759
    7ETHO    C110310  16.884  16.873   7.790
    7ETHO   H1110311  16.790  16.826   7.827
    7ETHO   H1310312  16.912  16.815   7.699
    7ETHO    C210313  17.004  16.871   7.893
    7ETHO   H2110314  17.067  16.960   7.874
    7ETHO   H2310315  17.069  16.787   7.861
    8ETHO    O110316  16.955  16.844   8.025
    8ETHO    C110317  16.868  16.949   8.078
    8ETHO   H1110318  16.782  16.976   8.014
    8ETHO   H1310319  16.918  17.048   8.089
    8ETHO    C210320  16.810  16.909   8.213
    8ETHO   H2110321  16.742  16.824   8.191
    8ETHO   H2310322  16.755  16.994   8.258
    9ETHO    O110323  16.921  16.865   8.297
    9ETHO    C110324  16.873  16.818   8.426
    9ETHO   H1110325  16.947  16.849   8.502
    9ETHO   H1310326  16.771  16.855   8.449
    9ETHO    C210327  16.870  16.663   8.448
    9ETHO   H2110328  16.857  16.642   8.556
    9ETHO   H2310329  16.972  16.623   8.431
   10ETHO    O110330  16.777  16.590   8.365
   10ETHO    C110331  16.635  16.618   8.404
   10ETHO   H1110332  16.618  16.726   8.383
   10ETHO   H1310333  16.619  16.597   8.512
   10ETHO    C210334  16.534  16.537   8.318
   10ETHO   H2110335  16.432  16.565   8.351
   10ETHO   H2310336  16.553  16.429   8.336
   11ETHO    O110337  16.559  16.573   8.184
   11ETHO    C110338  16.481  16.498   8.089
   11ETHO   H1110339  16.507  16.390   8.085
   11ETHO   H1310340  16.378  16.495   8.129
   11ETHO    C210341  16.505  16.556   7.950
   11ETHO   H2110342  16.614  16.579   7.949
   11ETHO   H2310343  16.486  16.476   7.875
   12ETHO    O110344  16.421  16.671   7.931
   12ETHO    C110345  16.432  16.721   7.799
   12ETHO   H1110346  16.389  16.641   7.734
   12ETHO   H1310347  16.539  16.741   7.777
   12ETHO    C210348  16.350  16.850   7.775
   12ETHO   H2110349  16.244  16.825   7.799
   12ETHO   H2310350  16.368  16.864   7.667
   13ETHO    O110351  16.404  16.945   7.862
   13ETHO    C110352  16.327  17.068   7.840
   13ETHO   H1110353  16.391  17.156   7.864
   13ETHO   H1310354  16.311  17.070   7.730
   13ETHO    C210355  16.187  17.064   7.907
   13ETHO   H2110356  16.125  16.978   7.873
   13ETHO   H2310357  16.126  17.151   7.875
   14ETHO    O110358  16.202  17.059   8.045
   14ETHO    C110359  16.070  17.055   8.104
   14ETHO   H1110360  16.043  16.949   8.122
   14ETHO   H1310361  15.995  17.103   8.037
   14ETHO    C210362  16.067  17.134   8.230
   14ETHO   H2110363  15.961  17.133   8.264
   14ETHO   H2310364  16.105  17.236   8.209
   15ETHO    O110365  16.130  17.079   8.343
   15ETHO    C110366  16.131  17.168   8.457
   15ETHO   H1110367  16.212  17.241   8.437
   15ETHO   H1310368  16.030  17.210   8.476
   15ETHO    C210369  16.171  17.089   8.574
   15ETHO   H2110370  16.087  17.020   8.598
   15ETHO   H2310371  16.264  17.027   8.567
   16ETHO    O110372  16.186  17.172   8.691
   16ETHO    C110373  16.318  17.216   8.717
   16ETHO   H1110374  16.381  17.140   8.768
   16ETHO   H1310375  16.372  17.218   8.619
   16ETHO    C210376  16.324  17.348   8.795
   16ETHO   H2110377  16.282  17.425   8.727
   16ETHO   H2310378  16.432  17.368   8.812
   17ETHO    O110379  16.241  17.350   8.913
   17ETHO    C110380  16.243  17.479   8.974
   17ETHO   H1110381  16.352  17.497   8.987
   17ETHO   H1310382  16.200  17.562   8.915
   17ETHO    C210383  16.177  17.481   9.109
   17ETHO   H2110384  16.203  17.577   9.158
   17ETHO   H2310385  16.221  17.403   9.175
   18ETHO    O110386  16.029  17.477   9.102
   18ETHO    C110387  15.973  17.493   9.235
   18ETHO   H1110388  15.866  17.468   9.223
   18ETHO   H1310389  16.011  17.422   9.311
   18ETHO    C210390  15.972  17.630   9.308
   18ETHO   H2110391  15.886  17.615   9.377
   18ETHO   H2310392  15.950  17.710   9.234
   19ETHO    O110393  16.086  17.659   9.385
   19ETHO    C110394  16.072  17.774   9.474
   19ETHO   H1110395  16.111  17.727   9.567
   19ETHO   H1310396  15.965  17.804   9.476
   19ETHO    C210397  16.151  17.897   9.429
   19ETHO   H2110398  16.259  17.869   9.427
   19ETHO   H2310399  16.151  17.980   9.502
   20ETHO    O110400  16.111  17.949   9.298
   20ETHO    C110401  15.979  18.015   9.301
   20ETHO   H1110402  15.904  17.943   9.341
   20ETHO   H1310403  15.983  18.109   9.361
   20ETHO    C210404  15.944  18.050   9.163
   20ETHO   H2110405  15.968  17.969   9.091
   20ETHO   H2310406  16.022  18.127   9.144
   21ETHO    O110407  15.813  18.101   9.146
   21ETHO    C110408  15.783  18.151   9.018
   21ETHO   H1110409  15.807  18.069   8.947
   21ETHO   H1310410  15.845  18.237   8.985
   21ETHO    C210411  15.632  18.202   9.000
   21ETHO   H2110412  15.579  18.117   9.050
   21ETHO   H2310413  15.595  18.211   8.896
   22ETHO    O110414  15.615  18.325   9.063
   22ETHO    C110415  15.481  18.365   9.074
   22ETHO   H1110416  15.427  18.347   8.979
   22ETHO   H1310417  15.439  18.300   9.154
   22ETHO    C210418  15.443  18.502   9.111
   22ETHO   H2110419  15.492  18.571   9.039
   22ETHO   H2310420  15.334  18.517   9.096
   23ETHO    O110421  15.484  18.542   9.245
   23ETHO    C110422  15.624  18.569   9.265
   23ETHO   H1110423  15.657  18.657   9.206
   23ETHO   H1310424  15.666  18.472   9.231
   23ETHO    C210425  15.645  18.598   9.416
   23ETHO   H2110426  15.582  18.688   9.435
   23ETHO   H2310427  15.752  18.622   9.435
   24ETHO    O110428  15.599  18.487   9.492
   24ETHO    C110429  15.624  18.493   9.634
   24ETHO   H1110430  15.729  18.461   9.643
   24ETHO   H1310431  15.624  18.598   9.670
   24ETHO    C210432  15.517  18.398   9.699
   24ETHO   H2110433  15.525  18.383   9.808
   24ETHO   H2310434  15.528  18.297   9.652
   25ETHO    O110435  15.384  18.438   9.684
   25ETHO    C110436  15.283  18.346   9.740
   25ETHO   H1110437  15.293  18.338   9.850
   25ETHO   H1310438  15.298  18.243   9.700
   25ETHO    C210439  15.135  18.396   9.720
   25ETHO   H2110440  15.108  18.493   9.767
   25ETHO   H2310441  15.058  18.329   9.764
   26ETHO    O110442  15.101  18.398   9.578
   26ETHO    C110443  14.978  18.474   9.557
   26ETHO   H1110444  14.896  18.405   9.527
   26ETHO   H1310445  14.956  18.527   9.651
   26ETHO    C210446  14.979  18.563   9.444
   26ETHO   H2110447  14.881  18.616   9.445
   26ETHO   H2310448  14.993  18.518   9.344
   27ETHO    O110449  15.068  18.666   9.485
   27ETHO    C110450  15.183  18.664   9.404
   27ETHO   H1110451  15.217  18.561   9.379
   27ETHO   H1310452  15.270  18.710   9.455
   27ETHO    C210453  15.148  18.744   9.281
   27ETHO   H2110454  15.051  18.711   9.239
   27ETHO   H2310455  15.221  18.716   9.202
   28ETHO    O110456  15.147  18.882   9.304
   28ETHO    C110457  15.102  18.953   9.193
   28ETHO   H1110458  15.000  18.924   9.160
   28ETHO   H1310459  15.106  19.058   9.229
   28ETHO    C210460  15.195  18.941   9.062
   28ETHO   H2110461  15.147  19.008   8.987
   28ETHO   H2310462  15.201  18.838   9.021
   29ETHO    O110463  15.320  19.002   9.087
   29ETHO    C110464  15.416  18.952   8.993
   29ETHO   H1110465  15.405  18.975   8.885
   29ETHO   H1310466  15.423  18.843   9.011
   29ETHO    C210467  15.551  19.017   9.032
   29ETHO   H2110468  15.641  18.969   8.988
   29ETHO   H2310469  15.572  19.004   9.141
   30ETHO    O110470  15.561  19.157   9.001
   30ETHO    C110471  15.664  19.171   8.902
   30ETHO   H1110472  15.763  19.134   8.936
   30ETHO   H1310473  15.626  19.115   8.814
   30ETHO    C210474  15.671  19.311   8.845
   30ETHO   H2110475  15.577  19.344   8.795
   30ETHO   H2310476  15.740  19.306   8.758
   31ETHO    O110477  15.709  19.413   8.943
   31ETHO    C110478  15.842  19.418   8.974
   31ETHO   H1110479  15.862  19.358   9.065
   31ETHO   H1310480  15.900  19.376   8.889
   31ETHO    C210481  15.886  19.562   8.975
   31ETHO   H2110482  15.842  19.602   8.882
   31ETHO   H2310483  15.997  19.566   8.970
   32ETHO    O110484  15.837  19.629   9.088
   32ETHO    C110485  15.941  19.636   9.191
   32ETHO   H1110486  15.968  19.531   9.217
   32ETHO   H1310487  16.030  19.683   9.144
   32ETHO    C210488  15.891  19.729   9.304
   32ETHO   H2110489  15.982  19.737   9.366
   32ETHO   H2310490  15.801  19.683   9.351
   33ETHO    O110491  15.852  19.859   9.250
   33ETHO    C110492  15.823  19.948   9.355
   33ETHO   H1110493  15.723  19.916   9.393
   33ETHO   H1310494  15.888  19.938   9.444
   33ETHO    C210495  15.831  20.093   9.314
   33ETHO   H2110496  15.770  20.161   9.378
   33ETHO   H2310497  15.789  20.110   9.213
   34ETHO    O110498  15.964  20.139   9.312
   34ETHO    C110499  15.975  20.270   9.263
   34ETHO   H1110500  15.962  20.341   9.347
   34ETHO   H1310501  15.909  20.300   9.178
   34ETHO    C210502  16.125  20.305   9.218
   34ETHO   H2110503  16.195  20.302   9.305
   34ETHO   H2310504  16.142  20.411   9.192
   35ETHO    O110505  16.179  20.230   9.109
   35ETHO    C110506  16.319  20.232   9.121
   35ETHO   H1110507  16.341  20.341   9.119
   35ETHO   H1310508  16.357  20.180   9.212
   35ETHO    C210509  16.388  20.160   8.998
   35ETHO   H2110510  16.486  20.212   9.001
   35ETHO   H2310511  16.341  20.187   8.902
   36ETHO    O110512  16.397  20.020   9.020
   36ETHO    C110513  16.478  19.960   8.924
   36ETHO   H1110514  16.500  19.861   8.970
   36ETHO   H1310515  16.571  20.022   8.918
   36ETHO    C210516  16.407  19.947   8.793
   36ETHO   H2110517  16.403  20.038   8.730
   36ETHO   H2310518  16.300  19.921   8.813
   37ETHO    O110519  16.458  19.832   8.720
   37ETHO    C110520  16.591  19.851   8.672
   37ETHO   H1110521  16.620  19.955   8.645
   37ETHO   H1310522  16.656  19.823   8.758
   37ETHO    C210523  16.626  19.770   8.553
   37ETHO   H2110524  16.616  19.661   8.573
   37ETHO   H2310525  16.732  19.782   8.521
   38ETHO    O110526  16.545  19.806   8.442
   38ETHO    C110527  16.567  19.702   8.344
   38ETHO   H1110528  16.533  19.605   8.388
   38ETHO   H1310529  16.676  19.691   8.326
   38ETHO    C210530  16.487  19.714   8.217
   38ETHO   H2110531  16.547  19.656   8.143
   38ETHO   H2310532  16.494  19.820   8.184
   39ETHO    O110533  16.349  19.677   8.230
   39ETHO    C110534  16.257  19.769   8.170
   39ETHO   H1110535  16.266  19.863   8.228
   39ETHO   H1310536  16.275  19.779   8.061
   39ETHO    C210537  16.106  19.723   8.192
   39ETHO   H2110538  16.041  19.812   8.178
   39ETHO   H2310539  16.097  19.703   8.301
   40ETHO    O110540  16.054  19.616   8.115
   40ETHO    C110541  16.022  19.648   7.982
   40ETHO   H1110542  16.117  19.639   7.926
   40ETHO   H1310543  15.978  19.749   7.969
   40ETHO    C210544  15.912  19.558   7.914
   40ETHO   H2110545  15.944  19.452   7.908
   40ETHO   H2310546  15.909  19.595   7.809
   41ETHO    O110547  15.781  19.574   7.975
   41ETHO    C110548  15.718  19.451   8.004
   41ETHO   H1110549  15.692  19.400   7.909
   41ETHO   H1310550  15.794  19.384   8.050
   41ETHO    C210551  15.597  19.464   8.097
   41ETHO   H2110552  15.552  19.364   8.114
   41ETHO   H2310553  15.522  19.522   8.041
   42ETHO    O110554  15.634  19.525   8.220
   42ETHO    C110555  15.584  19.450   8.334
   42ETHO   H1110556  15.473  19.442   8.327
   42ETHO   H1310557  15.626  19.347   8.339
   42ETHO    C210558  15.640  19.534   8.455
   42ETHO   H2110559  15.604  19.485   8.548
   42ETHO   H2310560  15.599  19.637   8.448
   43ETHO    O110561  15.777  19.530   8.469
   43ETHO    C110562  15.828  19.614   8.569
   43ETHO   H1110563  15.824  19.713   8.519
   43ETHO   H1310564  15.766  19.619   8.661
   43ETHO    C210565  15.968  19.579   8.621
   43ETHO   H2110566  15.970  19.486   8.681
   43ETHO   H2310567  16.001  19.669   8.677
   44ETHO    O110568  16.048  19.573   8.502
   44ETHO    C110569  16.171  19.506   8.526
   44ETHO   H1110570  16.161  19.399   8.554
   44ETHO   H1310571  16.229  19.520   8.432
   44ETHO    C210572  16.251  19.575   8.641
   44ETHO   H2110573  16.219  19.678   8.668
   44ETHO   H2310574  16.361  19.570   8.623
   45ETHO    O110575  16.218  19.497   8.762
   45ETHO    C110576  16.291  19.536   8.881
   45ETHO   H1110577  16.230  19.607   8.941
   45ETHO   H1310578  16.388  19.588   8.863
   45ETHO    C210579  16.297  19.417   8.979
   45ETHO   H2110580  16.361  19.452   9.063
   45ETHO   H2310581  16.345  19.341   8.913
   46ETHO    O110582  16.168  19.371   9.027
   46ETHO    C110583  16.191  19.234   9.072
   46ETHO   H1110584  16.182  19.161   8.988
   46ETHO   H1310585  16.289  19.227   9.124
   46ETHO    C210586  16.077  19.191   9.165
   46ETHO   H2110587  16.097  19.089   9.202
   46ETHO   H2310588  15.982  19.192   9.107
   47ETHO    O110589  16.052  19.272   9.271
   47ETHO    C110590  15.943  19.223   9.358
   47ETHO   H1110591  15.963  19.124   9.403
   47ETHO   H1310592  15.858  19.209   9.289
   47ETHO    C210593  15.921  19.320   9.471
   47ETHO   H2110594  15.929  19.424   9.430
   47ETHO   H2310595  16.005  19.308   9.542
   48ETHO    O110596  15.797  19.294   9.536
   48ETHO    C110597  15.708  19.401   9.528
   48ETHO   H1110598  15.746  19.480   9.595
   48ETHO   H1310599  15.716  19.443   9.425
   48ETHO    C210600  15.561  19.362   9.564
   48ETHO   H2110601  15.518  19.295   9.486
   48ETHO   H2310602  15.565  19.303   9.658
   49ETHO    O110603  15.475  19.472   9.565
   49ETHO    C110604  15.357  19.444   9.639
   49ETHO   H1110605  15.362  19.337   9.669
   49ETHO   H1310606  15.275  19.481   9.574
   49ETHO    C210607  15.362  19.531   9.767
   49ETHO   H2110608  15.267  19.510   9.820
   49ETHO   H2310609  15.368  19.634   9.726
   50ETHO    O110610  15.460  19.497   9.861
   50ETHO    C110611  15.454  19.590   9.969
   50ETHO   H1110612  15.405  19.686   9.943
   50ETHO   H1310613  15.386  19.547  10.047
   50ETHO    C210614  15.591  19.612  10.025
   50ETHO   H2110615  15.579  19.688  10.105
   50ETHO   H2310616  15.667  19.641   9.950
   51ETHO    O110617  15.643  19.491  10.086
   51ETHO    C110618  15.764  19.533  10.145
   51ETHO   H1110619  15.746  19.622  10.209
   51ETHO   H1310620  15.835  19.562  10.064
   51ETHO    C210621  15.832  19.438  10.241
   51ETHO   H2110622  15.912  19.506  10.278
   51ETHO   H2310623  15.883  19.354  10.190
   52ETHO    O110624  15.754  19.386  10.354
   52ETHO    C110625  15.833  19.304  10.444
   52ETHO   H1110626  15.894  19.230  10.388
   52ETHO   H1310627  15.914  19.370  10.482
   52ETHO    C210628  15.760  19.236  10.564
   52ETHO   H2110629  15.670  19.177  10.539
   52ETHO   H2310630  15.734  19.321  10.631
   53ETHO    O110631  15.858  19.154  10.631
   53ETHO    C110632  15.914  19.228  10.739
   53ETHO   H1110633  15.983  19.310  10.707
   53ETHO   H1310634  15.825  19.262  10.796
   53ETHO    C210635  15.989  19.126  10.819
   53ETHO   H2110636  15.945  19.025  10.808
   53ETHO   H2310637  15.995  19.144  10.928
   54ETHO    O110638  16.120  19.122  10.776
   54ETHO    C110639  16.197  19.016  10.832
   54ETHO   H1110640  16.244  19.044  10.929
   54ETHO   H1310641  16.130  18.932  10.860
   54ETHO    C210642  16.320  18.959  10.752
   54ETHO   H2110643  16.363  18.879  10.816
   54ETHO   H2310644  16.394  19.041  10.738
   55ETHO    O110645  16.296  18.910  10.618
   55ETHO    C110646  16.401  18.830  10.577
   55ETHO   H1110647  16.491  18.895  10.577
   55ETHO   H1310648  16.417  18.743  10.643
   55ETHO    C210649  16.394  18.766  10.436
   55ETHO   H2110650  16.370  18.835  10.352
   55ETHO   H2310651  16.494  18.721  10.423
   56ETHO    O110652  16.304  18.656  10.440
   56ETHO    C110653  16.213  18.661  10.323
   56ETHO   H1110654  16.261  18.665  10.224
   56ETHO   H1310655  16.153  18.755  10.320
   56ETHO    C210656  16.114  18.548  10.331
   56ETHO   H2110657  16.022  18.572  10.272
   56ETHO   H2310658  16.089  18.531  10.438
   57ETHO    O110659  16.180  18.437  10.282
   57ETHO    C110660  16.096  18.321  10.280
   57ETHO   H1110661  16.055  18.313  10.383
   57ETHO   H1310662  16.016  18.324  10.203
   57ETHO    C210663  16.173  18.192  10.247
   57ETHO   H2110664  16.114  18.103  10.279
   57ETHO   H2310665  16.266  18.204  10.307
   58ETHO    O110666  16.212  18.180  10.108
   58ETHO    C110667  16.300  18.063  10.107
   58ETHO   H1110668  16.270  17.978  10.171
   58ETHO   H1310669  16.400  18.094  10.146
   58ETHO    C210670  16.309  18.021   9.963
   58ETHO   H2110671  16.205  18.028   9.925
   58ETHO   H2310672  16.340  17.915   9.960
   59ETHO    O110673  16.396  18.088   9.867
   59ETHO    C110674  16.341  18.084   9.737
   59ETHO   H1110675  16.346  17.976   9.714
   59ETHO   H1310676  16.239  18.128   9.735
   59ETHO    C210677  16.444  18.144   9.636
   59ETHO   H2110678  16.400  18.118   9.537
   59ETHO   H2310679  16.539  18.087   9.644
   60ETHO    O110680  16.468  18.285   9.638
   60ETHO    C110681  16.356  18.370   9.642
   60ETHO   H1110682  16.269  18.324   9.693
   60ETHO   H1310683  16.330  18.393   9.536
   60ETHO    C210684  16.397  18.505   9.714
   60ETHO   H2110685  16.331  18.589   9.683
   60ETHO   H2310686  16.495  18.523   9.665
   61ETHO    O110687  16.404  18.486   9.855
   61ETHO    C110688  16.459  18.595   9.925
   61ETHO   H1110689  16.545  18.636   9.868
   61ETHO   H1310690  16.381  18.672   9.942
   61ETHO    C210691  16.497  18.555  10.063
   61ETHO   H2110692  16.412  18.527  10.128
   61ETHO   H2310693  16.541  18.648  10.104
   62ETHO    O110694  16.592  18.455  10.080
   62ETHO    C110695  16.626  18.414  10.216
   62ETHO   H1110696  16.539  18.406  10.285
   62ETHO   H1310697  16.673  18.504  10.261
   62ETHO    C210698  16.706  18.283  10.227
   62ETHO   H2110699  16.675  18.215  10.146
   62ETHO   H2310700  16.687  18.229  10.322
   63ETHO    O110701  16.849  18.290  10.214
   63ETHO    C110702  16.901  18.207  10.113
   63ETHO   H1110703  16.867  18.102  10.129
   63ETHO   H1310704  16.870  18.247  10.014
   63ETHO    C210705  17.055  18.203  10.124
   63ETHO   H2110706  17.081  18.102  10.084
   63ETHO   H2310707  17.105  18.206  10.223
   64ETHO    O110708  17.108  18.309  10.049
   64ETHO    C110709  17.249  18.319  10.053
   64ETHO   H1110710  17.297  18.221  10.032
   64ETHO   H1310711  17.275  18.346  10.158
   64ETHO    C210712  17.303  18.428   9.959
   64ETHO   H2110713  17.402  18.464   9.994
   64ETHO   H2310714  17.238  18.518   9.960
   65ETHO    O110715  17.309  18.374   9.824
   65ETHO    C110716  17.324  18.484   9.731
   65ETHO   H1110717  17.278  18.458   9.633
   65ETHO   H1310718  17.293  18.584   9.766
   65ETHO    C210719  17.479  18.496   9.703
   65ETHO   H2110720  17.543  18.483   9.793
   65ETHO   H2310721  17.495  18.592   9.649
   66ETHO    O110722  17.512  18.384   9.621
   66ETHO    C110723  17.581  18.417   9.497
   66ETHO   H1110724  17.670  18.480   9.519
   66ETHO   H1310725  17.510  18.488   9.450
   66ETHO    C210726  17.615  18.295   9.412
   66ETHO   H2110727  17.521  18.256   9.369
   66ETHO   H2310728  17.661  18.207   9.463
   67ETHO    O110729  17.711  18.330   9.311
   67ETHO    C110730  17.754  18.218   9.230
   67ETHO   H1110731  17.830  18.160   9.286
   67ETHO   H1310732  17.662  18.158   9.210
   67ETHO    C210733  17.830  18.246   9.098
   67ETHO   H2110734  17.838  18.146   9.050
   67ETHO   H2310735  17.929  18.277   9.136
   68ETHO    O110736  17.778  18.346   9.009
   68ETHO    C110737  17.849  18.358   8.886
   68ETHO   H1110738  17.838  18.463   8.853
   68ETHO   H1310739  17.954  18.330   8.908
   68ETHO    C210740  17.794  18.256   8.781
   68ETHO   H2110741  17.819  18.154   8.818
   68ETHO   H2310742  17.844  18.262   8.682
   69ETHO    O110743  17.652  18.268   8.778
   69ETHO    C110744  17.593  18.169   8.693
   69ETHO   H1110745  17.500  18.220   8.660
   69ETHO   H1310746  17.651  18.152   8.600
   69ETHO    C210747  17.555  18.033   8.767
   69ETHO   H2110748  17.641  17.987   8.819
   69ETHO   H2310749  17.512  17.969   8.688
   70ETHO    O110750  17.458  18.046   8.869
   70ETHO    C110751  17.502  18.082   9.002
   70ETHO   H1110752  17.585  18.154   8.990
   70ETHO   H1310753  17.420  18.141   9.048
   70ETHO    C210754  17.556  17.957   9.080
   70ETHO   H2110755  17.477  17.881   9.065
   70ETHO   H2310756  17.553  17.980   9.189
   71ETHO    O110757  17.687  17.919   9.036
   71ETHO    C110758  17.741  17.845   9.142
   71ETHO   H1110759  17.666  17.778   9.188
   71ETHO   H1310760  17.768  17.922   9.217
   71ETHO    C210761  17.860  17.765   9.104
   71ETHO   H2110762  17.839  17.711   9.009
   71ETHO   H2310763  17.879  17.687   9.180
   72ETHO    O110764  17.981  17.830   9.093
   72ETHO    C110765  17.996  17.894   8.966
   72ETHO   H1110766  18.027  17.822   8.888
   72ETHO   H1310767  17.900  17.945   8.944
   72ETHO    C210768  18.117  17.994   8.957
   72ETHO   H2110769  18.127  18.030   8.852
   72ETHO   H2310770  18.204  17.937   8.997
   73ETHO    O110771  18.092  18.109   9.029
   73ETHO    C110772  18.184  18.218   9.010
   73ETHO   H1110773  18.136  18.317   9.020
   73ETHO   H1310774  18.239  18.214   8.913
   73ETHO    C210775  18.287  18.194   9.114
   73ETHO   H2110776  18.337  18.097   9.096
   73ETHO   H2310777  18.243  18.179   9.216
   74ETHO    O110778  18.387  18.300   9.124
   74ETHO    C110779  18.487  18.255   9.215
   74ETHO   H1110780  18.436  18.208   9.302
   74ETHO   H1310781  18.560  18.187   9.167
   74ETHO    C210782  18.562  18.375   9.280
   74ETHO   H2110783  18.614  18.436   9.203
   74ETHO   H2310784  18.633  18.326   9.350
   75ETHO    O110785  18.482  18.459   9.364
   75ETHO    C110786  18.565  18.548   9.451
   75ETHO   H1110787  18.619  18.614   9.380
   75ETHO   H1310788  18.640  18.487   9.505
   75ETHO    C210789  18.475  18.629   9.544
   75ETHO   H2110790  18.543  18.684   9.614
   75ETHO   H2310791  18.412  18.563   9.607
   76ETHO    O110792  18.393  18.727   9.475
   76ETHO    C110793  18.334  18.820   9.564
   76ETHO   H1110794  18.285  18.760   9.644
   76ETHO   H1310795  18.421  18.861   9.622
   76ETHO    C210796  18.244  18.917   9.493
   76ETHO   H2110797  18.298  18.942   9.399
   76ETHO   H2310798  18.224  19.005   9.558
   77ETHO    O110799  18.112  18.856   9.476
   77ETHO    C110800  18.045  18.917   9.367
   77ETHO   H1110801  18.113  18.895   9.282
   77ETHO   H1310802  18.031  19.026   9.381
   77ETHO    C210803  17.904  18.860   9.332
   77ETHO   H2110804  17.895  18.750   9.349
   77ETHO   H2310805  17.867  18.881   9.229
   78ETHO    O110806  17.811  18.913   9.429
   78ETHO    C110807  17.680  18.867   9.403
   78ETHO   H1110808  17.656  18.880   9.295
   78ETHO   H1310809  17.671  18.758   9.423
   78ETHO    C210810  17.581  18.949   9.485
   78ETHO   H2110811  17.488  18.901   9.447
   78ETHO   H2310812  17.599  19.056   9.463
   79ETHO    O110813  17.575  18.920   9.623
   79ETHO    C110814  17.449  18.963   9.681
   79ETHO   H1110815  17.441  19.073   9.673
   79ETHO   H1310816  17.373  18.900   9.630
   79ETHO    C210817  17.422  18.938   9.837
   79ETHO   H2110818  17.462  19.029   9.886
   79ETHO   H2310819  17.470  18.843   9.870
   80ETHO    O110820  17.283  18.909   9.860
   80ETHO    C110821  17.266  18.853   9.989
   80ETHO   H1110822  17.340  18.771  10.000
   80ETHO   H1310823  17.298  18.932  10.061
   80ETHO    C210824  17.115  18.810  10.016
   80ETHO   H2110825  17.045  18.896  10.004
   80ETHO   H2310826  17.109  18.783  10.124
   81ETHO    O110827  17.073  18.701   9.937
   81ETHO    C110828  16.934  18.679   9.933
   81ETHO   H1110829  16.895  18.647  10.032
   81ETHO   H1310830  16.884  18.776   9.909
   81ETHO    C210831  16.881  18.572   9.835
   81ETHO   H2110832  16.954  18.489   9.825
   81ETHO   H2310833  16.793  18.517   9.874
   82ETHO    O110834  16.855  18.619   9.703
   82ETHO    C110835  16.801  18.521   9.614
   82ETHO   H1110836  16.738  18.576   9.540
   82ETHO   H1310837  16.743  18.443   9.666
   82ETHO    C210838  16.914  18.473   9.517
   82ETHO   H2110839  16.979  18.562   9.501
   82ETHO   H2310840  16.882  18.426   9.422
   83ETHO    O110841  17.011  18.386   9.568
   83ETHO    C110842  16.965  18.260   9.604
   83ETHO   H1110843  16.903  18.269   9.696
   83ETHO   H1310844  16.898  18.221   9.525
   83ETHO    C210845  17.066  18.149   9.641
   83ETHO   H2110846  17.126  18.190   9.725
   83ETHO   H2310847  17.138  18.124   9.560
   84ETHO    O110848  16.992  18.036   9.695
   84ETHO    C110849  17.075  17.951   9.764
   84ETHO   H1110850  17.136  18.010   9.837
   84ETHO   H1310851  17.146  17.897   9.698
   84ETHO    C210852  16.995  17.837   9.838
   84ETHO   H2110853  16.897  17.877   9.869
   84ETHO   H2310854  17.063  17.805   9.920
   85ETHO    O110855  16.966  17.730   9.745
   85ETHO    C110856  16.856  17.647   9.783
   85ETHO   H1110857  16.778  17.725   9.792
   85ETHO   H1310858  16.846  17.575   9.699
   85ETHO    C210859  16.886  17.564   9.910
   85ETHO   H2110860  16.992  17.585   9.937
   85ETHO   H2310861  16.879  17.457   9.882
   86ETHO    O110862  16.792  17.595  10.015
   86ETHO    C110863  16.683  17.504  10.013
   86ETHO   H1110864  16.706  17.424  10.087
   86ETHO   H1310865  16.674  17.450   9.917
   86ETHO    C210866  16.559  17.577  10.053
   86ETHO   H2110867  16.472  17.509  10.051
   86ETHO   H2310868  16.552  17.667   9.987
   87ETHO    O110869  16.573  17.624  10.187
   87ETHO    C110870  16.462  17.697  10.240
   87ETHO   H1110871  16.502  17.728  10.339
   87ETHO   H1310872  16.433  17.789  10.184
   87ETHO    C210873  16.335  17.610  10.265
   87ETHO   H2110874  16.295  17.566  10.171
   87ETHO   H2310875  16.255  17.682  10.291
   88ETHO    O110876  16.335  17.509  10.363
   88ETHO    C110877  16.343  17.560  10.493
   88ETHO   H1110878  16.274  17.645  10.511
   88ETHO   H1310879  16.447  17.600  10.502
   88ETHO    C210880  16.327  17.464  10.614
   88ETHO   H2110881  16.373  17.515  10.702
   88ETHO   H2310882  16.382  17.371  10.587
   89ETHO    O110883  16.193  17.433  10.640
   89ETHO    C110884  16.177  17.337  10.748
   89ETHO   H1110885  16.220  17.238  10.718
   89ETHO   H1310886  16.250  17.360  10.829
   89ETHO    C210887  16.040  17.337  10.804
   89ETHO   H2110888  16.024  17.246  10.867
   89ETHO   H2310889  15.969  17.352  10.721
   90ETHO    O110890  16.026  17.442  10.896
   90ETHO    C110891  15.894  17.428  10.965
   90ETHO   H1110892  15.852  17.326  10.962
   90ETHO   H1310893  15.924  17.466  11.065
   90ETHO    C210894  15.784  17.508  10.884
   90ETHO   H2110895  15.828  17.557  10.794
   90ETHO   H2310896  15.738  17.593  10.938
   91ETHO    O110897  15.681  17.416  10.851
   91ETHO    C110898  15.575  17.481  10.779
   91ETHO   H1110899  15.519  17.566  10.823
   91ETHO   H1310900  15.626  17.526  10.690
   91ETHO    C210901  15.484  17.378  10.718
   91ETHO   H2110902  15.538  17.287  10.681
   91ETHO   H2310903  15.446  17.420  10.622
   92ETHO    O110904  15.376  17.320  10.788
   92ETHO    C110905  15.270  17.407  10.803
   92ETHO   H1110906  15.199  17.357  10.872
   92ETHO   H1310907  15.291  17.505  10.851
   92ETHO    C210908  15.182  17.429  10.683
   92ETHO   H2110909  15.239  17.466  10.595
   92ETHO   H2310910  15.098  17.499  10.702
   93ETHO    O110911  15.119  17.307  10.660
   93ETHO    C110912  15.028  17.312  10.550
   93ETHO   H1110913  15.090  17.347  10.464
   93ETHO   H1310914  14.952  17.388  10.579
   93ETHO    C210915  14.960  17.174  10.518
   93ETHO   H2110916  15.040  17.097  10.513
   93ETHO   H2310917  14.910  17.187  10.420
   94ETHO    O110918  14.872  17.133  10.629
   94ETHO    C110919  14.782  17.032  10.578
   94ETHO   H1110920  14.706  17.072  10.507
   94ETHO   H1310921  14.835  16.944  10.538
   94ETHO    C210922  14.695  16.983  10.698
   94ETHO   H2110923  14.644  16.887  10.676
   94ETHO   H2310924  14.620  17.059  10.728
   95ETHO    O110925  14.793  16.960  10.803
   95ETHO    C110926  14.732  16.955  10.933
   95ETHO   H1110927  14.661  17.039  10.952
   95ETHO   H1310928  14.805  16.960  11.017
   95ETHO    C210929  14.658  16.826  10.946
   95ETHO   H2110930  14.566  16.843  10.886
   95ETHO   H2310931  14.635  16.815  11.054
   96ETHO    O110932  14.725  16.707  10.904
   96ETHO    C110933  14.671  16.598  10.971
   96ETHO   H1110934  14.665  16.619  11.080
   96ETHO   H1310935  14.567  16.603  10.933
   96ETHO    C210936  14.750  16.473  10.938
   96ETHO   H2110937  14.856  16.479  10.971
   96ETHO   H2310938  14.766  16.454  10.830
   97ETHO    O110939  14.679  16.362  11.009
   97ETHO    C110940  14.749  16.238  11.014
   97ETHO   H1110941  14.857  16.261  11.025
   97ETHO   H1310942  14.749  16.193  10.913
   97ETHO    C210943  14.687  16.146  11.121
   97ETHO   H2110944  14.744  16.055  11.090
   97ETHO   H2310945  14.580  16.122  11.104
   98ETHO    O110946  14.703  16.194  11.249
   98ETHO    C110947  14.787  16.112  11.332
   98ETHO   H1110948  14.751  16.146  11.432
   98ETHO   H1310949  14.759  16.005  11.326
   98ETHO    C210950  14.932  16.140  11.297
   98ETHO   H2110951  15.003  16.117  11.379
   98ETHO   H2310952  14.939  16.249  11.283
   99ETHO    O110953  14.973  16.052  11.193
   99ETHO    C110954  15.115  16.082  11.164
   99ETHO   H1110955  15.178  16.061  11.252
   99ETHO   H1310956  15.141  16.187  11.138
   99ETHO    C210957  15.161  15.998  11.036
   99ETHO   H2110958  15.115  16.043  10.945
   99ETHO   H2310959  15.133  15.891  11.046
  100ETHO    O110960  15.308  16.012  11.033
  100ETHO    C110961  15.371  15.930  10.934
  100ETHO   H1110962  15.297  15.921  10.851
  100ETHO   H1310963  15.458  15.987  10.895
  100ETHO    C210964  15.405  15.790  10.984
  100ETHO   H2110965  15.407  15.802  11.094
  100ETHO   H2310966  15.509  15.760  10.959
  101PROX    O110967  15.313  15.681  10.939
  101PROX    C110968  15.335  15.563  11.009
  101PROX   H1110969  15.421  15.513  10.959
  101PROX   H1310970  15.375  15.589  11.110
  101PROX    C210971  15.213  15.491  11.035
  101PROX   H2110972  15.174  15.461  10.935
  101PROX    C310973  15.099  15.563  11.109
  101PROX   H3110974  15.016  15.490  11.120
  101PROX   H3210975  15.126  15.592  11.213
  101PROX   H3310976  15.059  15.654  11.059
  102PROX    O110977  15.243  15.376  11.114
  102PROX    C110978  15.314  15.279  11.034
  102PROX   H1110979  15.241  15.250  10.956
  102PROX   H1310980  15.412  15.310  10.993
  102PROX    C210981  15.340  15.155  11.119
  102PROX   H2110982  15.250  15.117  11.172
  102PROX    C310983  15.442  15.196  11.223
  102PROX   H3110984  15.541  15.216  11.178
  102PROX   H3210985  15.407  15.287  11.277
  102PROX   H3310986  15.472  15.115  11.293
  103PROX    O110987  15.391  15.050  11.035
  103PROX    C110988  15.349  14.922  11.078
  103PROX   H1110989  15.379  14.905  11.184
  103PROX   H1310990  15.238  14.920  11.074
  103PROX    C210991  15.415  14.808  10.987
  103PROX   H2110992  15.526  14.807  11.002
  103PROX    C310993  15.378  14.797  10.835
  103PROX   H3110994  15.438  14.871  10.777
  103PROX   H3210995  15.407  14.701  10.788
  103PROX   H3310996  15.270  14.821  10.825
  104PROX    O110997  15.377  14.682  11.044
  104PROX    C110998  15.241  14.642  11.016
  104PROX   H1110999  15.165  14.723  11.017
  104PROX   H1311000  15.223  14.598  10.915
  104PROX    C211001  15.202  14.528  11.115
  104PROX   H2111002  15.210  14.575  11.216
  104PROX    C311003  15.300  14.409  11.098
  104PROX   H3111004  15.299  14.362  10.998
  104PROX   H3211005  15.401  14.450  11.121
  104PROX   H3311006  15.275  14.337  11.179
  105PROX    O111007  15.065  14.490  11.085
  105PROX    C111008  15.005  14.405  11.185
  105PROX   H1111009  15.042  14.301  11.172
  105PROX   H1311010  15.028  14.426  11.292
  105PROX    C211011  14.852  14.420  11.168
  105PROX   H2111012  14.835  14.528  11.152
  105PROX    C311013  14.786  14.368  11.295
  105PROX   H3111014  14.832  14.272  11.327
  105PROX   H3211015  14.812  14.442  11.373
  105PROX   H3311016  14.675  14.375  11.287
  106PROX    O111017  14.801  14.344  11.061
  106PROX    C111018  14.803  14.418  10.938
  106PROX   H1111019  14.724  14.497  10.937
  106PROX   H1311020  14.900  14.472  10.943
  106PROX    C211021  14.808  14.331  10.810
  106PROX   H2111022  14.882  14.256  10.845
  106PROX    C311023  14.865  14.399  10.684
  106PROX   H3111024  14.908  14.319  10.621
  106PROX   H3211025  14.788  14.458  10.629
  106PROX   H3311026  14.941  14.473  10.716
  107PROX    O111027  14.677  14.289  10.775
  107PROX    C111028  14.596  14.228  10.877
  107PROX   H1111029  14.660  14.157  10.934
  107PROX   H1311030  14.563  14.308  10.946
  107PROX    C211031  14.472  14.158  10.813
  107PROX   H2111032  14.518  14.084  10.745
  107PROX    C311033  14.384  14.264  10.743
  107PROX   H3111034  14.292  14.281  10.803
  107PROX   H3211035  14.427  14.366  10.743
  107PROX   H3311036  14.347  14.236  10.642
  108PROX    O111037  14.415  14.083  10.911
  108PROX    C111038  14.324  13.983  10.861
  108PROX   H1111039  14.239  14.032  10.810
  108PROX   H1311040  14.380  13.923  10.786
  108PROX    C211041  14.269  13.898  10.978
  108PROX   H2111042  14.199  13.963  11.035
  108PROX    C311043  14.379  13.836  11.061
  108PROX   H3111044  14.347  13.744  11.113
  108PROX   H3211045  14.465  13.816  10.993
  108PROX   H3311046  14.404  13.914  11.137
  109PROX    O111047  14.201  13.790  10.924
  109PROX    C111048  14.130  13.706  11.012
  109PROX   H1111049  14.191  13.615  11.032
  109PROX   H1311050  14.119  13.758  11.109
  109PROX    C211051  13.999  13.653  10.951
  109PROX   H2111052  13.952  13.573  11.013
  109PROX    C311053  14.015  13.606  10.804
  109PROX   H3111054  14.072  13.679  10.743
  109PROX   H3211055  14.076  13.514  10.796
  109PROX   H3311056  13.919  13.582  10.752
  110PROX    O111057  13.903  13.759  10.934
  110PROX    C111058  13.822  13.779  11.047
  110PROX   H1111059  13.735  13.711  11.051
  110PROX   H1311060  13.883  13.755  11.137
  110PROX    C211061  13.773  13.925  11.054
  110PROX   H2111062  13.739  13.940  11.159
  110PROX    C311063  13.671  13.970  10.941
  110PROX   H3111064  13.593  13.894  10.919
  110PROX   H3211065  13.619  14.062  10.977
  110PROX   H3311066  13.721  13.989  10.844
  111PROX    O111067  13.888  14.012  11.040
  111PROX    C111068  13.872  14.144  11.092
  111PROX   H1111069  13.780  14.190  11.050
  111PROX   H1311070  13.868  14.130  11.202
  111PROX    C211071  14.000  14.239  11.066
  111PROX   H2111072  13.993  14.340  11.113
  111PROX    C311073  14.015  14.276  10.916
  111PROX   H3111074  14.058  14.188  10.864
  111PROX   H3211075  13.914  14.290  10.873
  111PROX   H3311076  14.088  14.357  10.893
  112PROX    O111077  14.122  14.174  11.111
  112PROX    C111078  14.150  14.179  11.250
  112PROX   H1111079  14.053  14.201  11.298
  112PROX   H1311080  14.204  14.090  11.290
  112PROX    C211081  14.255  14.297  11.272
  112PROX   H2111082  14.202  14.390  11.241
  112PROX    C311083  14.388  14.270  11.199
  112PROX   H3111084  14.365  14.234  11.097
  112PROX   H3211085  14.466  14.349  11.204
  112PROX   H3311086  14.431  14.188  11.261
  113PROX    O111087  14.279  14.305  11.409
  113PROX    C111088  14.179  14.375  11.485
  113PROX   H1111089  14.211  14.480  11.503
  113PROX   H1311090  14.083  14.363  11.431
  113PROX    C211091  14.171  14.298  11.624
  113PROX   H2111092  14.260  14.330  11.682
  113PROX    C311093  14.186  14.151  11.588
  113PROX   H3111094  14.283  14.127  11.540
  113PROX   H3211095  14.189  14.093  11.683
  113PROX   H3311096  14.102  14.109  11.530
  114PROX    O111097  14.061  14.335  11.705
  114PROX    C111098  13.933  14.282  11.665
  114PROX   H1111099  13.911  14.312  11.561
  114PROX   H1311100  13.939  14.171  11.677
  114PROX    C211101  13.824  14.333  11.765
  114PROX   H2111102  13.813  14.441  11.746
  114PROX    C311103  13.853  14.293  11.905
  114PROX   H3111104  13.768  14.311  11.975
  114PROX   H3211105  13.867  14.184  11.890
  114PROX   H3311106  13.946  14.336  11.947
  115PROX    O111107  13.697  14.263  11.746
  115PROX    C111108  13.644  14.278  11.618
  115PROX   H1111109  13.716  14.255  11.536
  115PROX   H1311110  13.553  14.218  11.599
  115PROX    C211111  13.588  14.423  11.601
  115PROX   H2111112  13.676  14.488  11.621
  115PROX    C311113  13.484  14.471  11.703
  115PROX   H3111114  13.461  14.577  11.679
  115PROX   H3211115  13.383  14.428  11.688
  115PROX   H3311116  13.517  14.466  11.809
  116PROX    O111117  13.549  14.447  11.463
  116PROX    C111118  13.667  14.464  11.378
  116PROX   H1111119  13.736  14.538  11.424
  116PROX   H1311120  13.711  14.364  11.361
  116PROX    C211121  13.618  14.520  11.242
  116PROX   H2111122  13.550  14.604  11.270
  116PROX    C311123  13.550  14.417  11.159
  116PROX   H3111124  13.476  14.459  11.087
  116PROX   H3211125  13.620  14.363  11.093
  116PROX   H3311126  13.496  14.342  11.220
  117PROX    O111127  13.731  14.572  11.165
  117PROX    C111128  13.693  14.668  11.073
  117PROX   H1111129  13.593  14.655  11.028
  117PROX   H1311130  13.694  14.764  11.128
  117PROX    C211131  13.792  14.667  10.955
  117PROX   H2111132  13.894  14.656  10.997
  117PROX    C311133  13.792  14.790  10.869
  117PROX   H3111134  13.840  14.783  10.769
  117PROX   H3211135  13.689  14.829  10.854
  117PROX   H3311136  13.850  14.865  10.927
  118PROX    O111137  13.781  14.542  10.882
  118PROX    C111138  13.659  14.533  10.803
  118PROX   H1111139  13.572  14.564  10.866
  118PROX   H1311140  13.661  14.600  10.714
  118PROX    C211141  13.630  14.387  10.757
  118PROX   H2111142  13.666  14.327  10.844
  118PROX    C311143  13.706  14.356  10.627
  118PROX   H3111144  13.814  14.349  10.653
  118PROX   H3211145  13.683  14.257  10.581
  118PROX   H3311146  13.691  14.440  10.556
  119PROX    O111147  13.489  14.372  10.752
  119PROX    C111148  13.449  14.236  10.732
  119PROX   H1111149  13.442  14.226  10.622
  119PROX   H1311150  13.521  14.165  10.776
  119PROX    C211151  13.314  14.206  10.775
  119PROX   H2111152  13.244  14.277  10.726
  119PROX    C311153  13.311  14.208  10.934
  119PROX   H3111154  13.360  14.113  10.966
  119PROX   H3211155  13.372  14.294  10.970
  119PROX   H3311156  13.208  14.207  10.973
  120PROX    O111157  13.284  14.069  10.735
  120PROX    C111158  13.146  14.028  10.750
  120PROX   H1111159  13.093  14.084  10.830
  120PROX   H1311160  13.088  14.035  10.655
  120PROX    C211161  13.147  13.883  10.804
  120PROX   H2111162  13.184  13.820  10.721
  120PROX    C311163  12.999  13.852  10.833
  120PROX   H3111164  12.946  13.845  10.736
  120PROX   H3211165  12.990  13.754  10.884
  120PROX   H3311166  12.958  13.933  10.896
  121PROX    O111167  13.231  13.869  10.926
  121PROX    C111168  13.249  13.738  10.972
  121PROX   H1111169  13.162  13.689  11.020
  121PROX   H1311170  13.267  13.689  10.874
  121PROX    C211171  13.376  13.718  11.054
  121PROX   H2111172  13.458  13.727  10.980
  121PROX    C311173  13.377  13.581  11.115
  121PROX   H3111174  13.339  13.497  11.053
  121PROX   H3211175  13.472  13.545  11.162
  121PROX   H3311176  13.303  13.577  11.198
  122PROX    O111177  13.370  13.813  11.165
  122PROX    C111178  13.493  13.802  11.249
  122PROX   H1111179  13.485  13.712  11.313
  122PROX   H1311180  13.582  13.789  11.184
  122PROX    C211181  13.492  13.923  11.338
  122PROX   H2111182  13.417  13.914  11.419
  122PROX    C311183  13.470  14.052  11.255
  122PROX   H3111184  13.486  14.135  11.327
  122PROX   H3211185  13.534  14.076  11.168
  122PROX   H3311186  13.367  14.059  11.213
  123PROX    O111187  13.617  13.946  11.400
  123PROX    C111188  13.663  13.838  11.481
  123PROX   H1111189  13.586  13.813  11.556
  123PROX   H1311190  13.682  13.749  11.418
  123PROX    C211191  13.797  13.888  11.541
  123PROX   H2111192  13.782  13.980  11.602
  123PROX    C311193  13.895  13.913  11.419
  123PROX   H3111194  13.852  13.993  11.355
  123PROX   H3211195  14.002  13.931  11.443
  123PROX   H3311196  13.894  13.826  11.350
  124PROX    O111197  13.860  13.790  11.618
  124PROX    C111198  13.921  13.835  11.746
  124PROX   H1111199  13.973  13.932  11.733
  124PROX   H1311200  13.842  13.856  11.821
  124PROX    C211201  14.012  13.727  11.793
  124PROX   H2111202  13.979  13.627  11.758
  124PROX    C311203  14.026  13.726  11.943
  124PROX   H3111204  13.924  13.734  11.987
  124PROX   H3211205  14.061  13.625  11.975
  124PROX   H3311206  14.104  13.799  11.975
  125PROX    O111207  14.137  13.756  11.738
  125PROX    C111208  14.171  13.680  11.615
  125PROX   H1111209  14.201  13.576  11.643
  125PROX   H1311210  14.081  13.663  11.552
  125PROX    C211211  14.279  13.749  11.532
  125PROX   H2111212  14.256  13.858  11.538
  125PROX    C311213  14.280  13.714  11.379
  125PROX   H3111214  14.190  13.764  11.338
  125PROX   H3211215  14.379  13.745  11.337
  125PROX   H3311216  14.270  13.604  11.375
  126PROX    O111217  14.414  13.711  11.582
  126PROX    C111218  14.510  13.819  11.586
  126PROX   H1111219  14.606  13.773  11.620
  126PROX   H1311220  14.511  13.864  11.484
  126PROX    C211221  14.478  13.930  11.687
  126PROX   H2111222  14.373  13.958  11.708
  126PROX    C311223  14.546  14.067  11.637
  126PROX   H3111224  14.653  14.042  11.621
  126PROX   H3211225  14.505  14.104  11.541
  126PROX   H3311226  14.536  14.150  11.711
  127PROX    O111227  14.540  13.896  11.810
  127PROX    C111228  14.491  13.778  11.877
  127PROX   H1111229  14.396  13.745  11.830
  127PROX   H1311230  14.555  13.689  11.861
  127PROX    C211231  14.445  13.789  12.027
  127PROX   H2111232  14.536  13.803  12.089
  127PROX    C311233  14.391  13.662  12.097
  127PROX   H3111234  14.456  13.574  12.074
  127PROX   H3211235  14.387  13.660  12.208
  127PROX   H3311236  14.289  13.640  12.061
  128PROX    O111237  14.345  13.887  12.045
  128PROX    C111238  14.403  14.011  12.094
  128PROX   H1111239  14.427  14.010  12.203
  128PROX   H1311240  14.499  14.046  12.052
  128PROX    C211241  14.304  14.128  12.088
  128PROX   H2111242  14.208  14.082  12.121
  128PROX    C311243  14.298  14.166  11.937
  128PROX   H3111244  14.396  14.212  11.912
  128PROX   H3211245  14.281  14.071  11.883
  128PROX   H3311246  14.228  14.247  11.906
  129PROX    O111247  14.341  14.235  12.176
  129PROX    C111248  14.256  14.352  12.163
  129PROX   H1111249  14.308  14.422  12.095
  129PROX   H1311250  14.158  14.331  12.114
  129PROX    C211251  14.228  14.417  12.299
  129PROX   H2111252  14.325  14.438  12.350
  129PROX    C311253  14.147  14.319  12.381
  129PROX   H3111254  14.211  14.233  12.411
  129PROX   H3211255  14.102  14.370  12.469
  129PROX   H3311256  14.064  14.283  12.316
  130PROX    O111257  14.142  14.526  12.282
  130PROX    C111258  14.201  14.643  12.229
  130PROX   H1111259  14.290  14.676  12.288
  130PROX   H1311260  14.230  14.612  12.126
  130PROX    C211261  14.102  14.756  12.227
  130PROX   H2111262  14.160  14.847  12.203
  130PROX    C311263  14.033  14.784  12.361
  130PROX   H3111264  13.946  14.717  12.377
  130PROX   H3211265  14.112  14.763  12.436
  130PROX   H3311266  13.994  14.888  12.368
  131PROX    O111267  14.007  14.745  12.123
  131PROX    C111268  13.928  14.855  12.102
  131PROX   H1111269  13.879  14.902  12.190
  131PROX   H1311270  13.989  14.941  12.067
  131PROX    C211271  13.821  14.816  11.998
  131PROX   H2111272  13.761  14.909  11.988
  131PROX    C311273  13.714  14.716  12.051
  131PROX   H3111274  13.661  14.755  12.140
  131PROX   H3211275  13.634  14.706  11.975
  131PROX   H3311276  13.748  14.613  12.076
  132PROX    O111277  13.874  14.788  11.870
  132PROX    C111278  13.774  14.753  11.767
  132PROX   H1111279  13.767  14.642  11.767
  132PROX   H1311280  13.679  14.806  11.789
  132PROX    C211281  13.813  14.804  11.626
  132PROX   H2111282  13.865  14.898  11.651
  132PROX    C311283  13.680  14.838  11.553
  132PROX   H3111284  13.615  14.749  11.563
  132PROX   H3211285  13.616  14.921  11.590
  132PROX   H3311286  13.697  14.869  11.447
  133PROX    O111287  13.896  14.715  11.551
  133PROX    C111288  14.008  14.668  11.621
  133PROX   H1111289  13.976  14.622  11.717
  133PROX   H1311290  14.049  14.587  11.558
  133PROX    C211291  14.122  14.768  11.649
  133PROX   H2111292  14.083  14.838  11.726
  133PROX    C311293  14.151  14.851  11.523
  133PROX   H3111294  14.066  14.906  11.478
  133PROX   H3211295  14.231  14.922  11.554
  133PROX   H3311296  14.192  14.780  11.449
  134PROX    O111297  14.234  14.691  11.698
  134PROX    C111298  14.319  14.754  11.791
  134PROX   H1111299  14.383  14.835  11.750
  134PROX   H1311300  14.253  14.795  11.870
  134PROX    C211301  14.416  14.652  11.861
  134PROX   H2111302  14.365  14.558  11.891
  134PROX    C311303  14.465  14.711  12.001
  134PROX   H3111304  14.376  14.752  12.054
  134PROX   H3211305  14.512  14.636  12.068
  134PROX   H3311306  14.530  14.797  11.975
  135PROX    O111307  14.528  14.622  11.779
  135PROX    C111308  14.610  14.512  11.820
  135PROX   H1111309  14.677  14.546  11.902
  135PROX   H1311310  14.541  14.428  11.843
  135PROX    C211311  14.695  14.464  11.699
  135PROX   H2111312  14.752  14.544  11.646
  135PROX    C311313  14.588  14.403  11.602
  135PROX   H3111314  14.489  14.383  11.647
  135PROX   H3211315  14.568  14.466  11.513
  135PROX   H3311316  14.629  14.308  11.561
  136PROX    O111317  14.776  14.350  11.725
  136PROX    C111318  14.886  14.381  11.808
  136PROX   H1111319  14.860  14.453  11.889
  136PROX   H1311320  14.925  14.290  11.859
  136PROX    C211321  15.009  14.422  11.719
  136PROX   H2111322  14.979  14.522  11.681
  136PROX    C311323  15.034  14.331  11.598
  136PROX   H3111324  15.139  14.351  11.566
  136PROX   H3211325  15.035  14.227  11.636
  136PROX   H3311326  14.963  14.340  11.513
  137PROX    O111327  15.124  14.413  11.796
  137PROX    C111328  15.127  14.510  11.898
  137PROX   H1111329  15.051  14.588  11.877
  137PROX   H1311330  15.094  14.467  11.995
  137PROX    C211331  15.261  14.575  11.917
  137PROX   H2111332  15.290  14.619  11.819
  137PROX    C311333  15.364  14.471  11.970
  137PROX   H3111334  15.369  14.459  12.080
  137PROX   H3211335  15.340  14.370  11.931
  137PROX   H3311336  15.467  14.493  11.936
  138PROX    O111337  15.244  14.678  12.016
  138PROX    C111338  15.196  14.800  11.958
  138PROX   H1111339  15.149  14.768  11.862
  138PROX   H1311340  15.104  14.844  12.001
  138PROX    C211341  15.302  14.907  11.943
  138PROX   H2111342  15.375  14.901  12.026
  138PROX    C311343  15.237  15.049  11.939
  138PROX   H3111344  15.144  15.045  11.999
  138PROX   H3211345  15.308  15.123  11.982
  138PROX   H3311346  15.205  15.079  11.837
  139PROX    O111347  15.366  14.888  11.821
  139PROX    C111348  15.507  14.920  11.824
  139PROX   H1111349  15.511  15.028  11.798
  139PROX   H1311350  15.554  14.918  11.925
  139PROX    C211351  15.577  14.848  11.708
  139PROX   H2111352  15.563  14.737  11.706
  139PROX    C311353  15.725  14.885  11.693
  139PROX   H3111354  15.752  14.856  11.590
  139PROX   H3211355  15.743  14.995  11.701
  139PROX   H3311356  15.792  14.829  11.762
  140PROX    O111357  15.517  14.892  11.586
  140PROX    C111358  15.509  14.805  11.480
  140PROX   H1111359  15.472  14.855  11.387
  140PROX   H1311360  15.607  14.762  11.453
  140PROX    C211361  15.398  14.696  11.506
  140PROX   H2111362  15.372  14.681  11.613
  140PROX    C311363  15.452  14.567  11.453
  140PROX   H3111364  15.558  14.546  11.480
  140PROX   H3211365  15.387  14.482  11.484
  140PROX   H3311366  15.437  14.576  11.344
  141PROX    O111367  15.279  14.718  11.431
  141PROX    C111368  15.218  14.837  11.477
  141PROX   H1111369  15.222  14.864  11.585
  141PROX   H1311370  15.256  14.926  11.423
  141PROX    C211371  15.063  14.811  11.474
  141PROX   H2111372  15.038  14.720  11.532
  141PROX    C311373  15.014  14.763  11.339
  141PROX   H3111374  15.031  14.837  11.258
  141PROX   H3211375  15.059  14.666  11.307
  141PROX   H3311376  14.907  14.732  11.334
  142PROX    O111377  14.994  14.922  11.520
  142PROX    C111378  14.852  14.898  11.532
  142PROX   H1111379  14.808  14.977  11.468
  142PROX   H1311380  14.822  14.795  11.503
  142PROX    C211381  14.808  14.927  11.677
  142PROX   H2111382  14.857  15.024  11.700
  142PROX    C311383  14.851  14.819  11.771
  142PROX   H3111384  14.962  14.817  11.777
  142PROX   H3211385  14.800  14.843  11.867
  142PROX   H3311386  14.811  14.719  11.740
  143PROX    O111387  14.662  14.950  11.687
  143PROX    C111388  14.621  15.064  11.622
  143PROX   H1111389  14.703  15.140  11.620
  143PROX   H1311390  14.608  15.043  11.514
  143PROX    C211391  14.495  15.138  11.676
  143PROX   H2111392  14.401  15.081  11.660
  143PROX    C311393  14.470  15.268  11.599
  143PROX   H3111394  14.378  15.304  11.649
  143PROX   H3211395  14.551  15.342  11.617
  143PROX   H3311396  14.443  15.254  11.492
  144PROX    O111397  14.508  15.192  11.807
  144PROX    C111398  14.466  15.095  11.900
  144PROX   H1111399  14.470  14.993  11.856
  144PROX   H1311400  14.542  15.092  11.981
  144PROX    C211401  14.321  15.124  11.950
  144PROX   H2111402  14.312  15.232  11.975
  144PROX    C311403  14.286  15.049  12.081
  144PROX   H3111404  14.316  14.943  12.072
  144PROX   H3211405  14.350  15.082  12.166
  144PROX   H3311406  14.181  15.068  12.112
  145PROX    O111407  14.232  15.095  11.848
  145PROX    C111408  14.115  15.175  11.848
  145PROX   H1111409  14.065  15.153  11.945
  145PROX   H1311410  14.141  15.284  11.847
  145PROX    C211411  14.018  15.154  11.729
  145PROX   H2111412  13.986  15.048  11.732
  145PROX    C311413  14.077  15.184  11.592
  145PROX   H3111414  14.071  15.294  11.587
  145PROX   H3211415  14.185  15.157  11.588
  145PROX   H3311416  14.022  15.129  11.512
  146PROX    O111417  13.898  15.234  11.744
  146PROX    C111418  13.780  15.167  11.696
  146PROX   H1111419  13.789  15.107  11.603
  146PROX   H1311420  13.747  15.090  11.769
  146PROX    C211421  13.655  15.258  11.664
  146PROX   H2111422  13.636  15.343  11.734
  146PROX    C311423  13.524  15.173  11.667
  146PROX   H3111424  13.434  15.237  11.669
  146PROX   H3211425  13.529  15.104  11.579
  146PROX   H3311426  13.521  15.110  11.759
  147PROX    O111427  13.668  15.310  11.532
  147PROX    C111428  13.741  15.434  11.531
  147PROX   H1111429  13.692  15.511  11.595
  147PROX   H1311430  13.839  15.426  11.582
  147PROX    C211431  13.755  15.491  11.390
  147PROX   H2111432  13.656  15.487  11.339
  147PROX    C311433  13.845  15.409  11.294
  147PROX   H3111434  13.816  15.303  11.307
  147PROX   H3211435  13.839  15.430  11.185
  147PROX   H3311436  13.950  15.421  11.328
  148PROX    O111437  13.800  15.623  11.398
  148PROX    C111438  13.761  15.686  11.271
  148PROX   H1111439  13.803  15.637  11.181
  148PROX   H1311440  13.650  15.687  11.274
  148PROX    C211441  13.796  15.837  11.254
  148PROX   H2111442  13.769  15.879  11.353
  148PROX    C311443  13.717  15.899  11.136
  148PROX   H3111444  13.751  15.845  11.045
  148PROX   H3211445  13.606  15.892  11.145
  148PROX   H3311446  13.754  16.003  11.124
  149PROX    O111447  13.933  15.858  11.224
  149PROX    C111448  14.023  15.808  11.325
  149PROX   H1111449  14.099  15.886  11.349
  149PROX   H1311450  13.967  15.783  11.418
  149PROX    C211451  14.100  15.682  11.268
  149PROX   H2111452  14.029  15.606  11.229
  149PROX    C311453  14.182  15.608  11.382
  149PROX   H3111454  14.197  15.506  11.341
  149PROX   H3211455  14.280  15.659  11.397
  149PROX   H3311456  14.128  15.603  11.479
  150PROX    O111457  14.195  15.719  11.174
  150PROX    C111458  14.146  15.765  11.044
  150PROX   H1111459  14.054  15.706  11.024
  150PROX   H1311460  14.121  15.873  11.052
  150PROX    C211461  14.258  15.735  10.935
  150PROX   H2111462  14.265  15.625  10.916
  150PROX    C311463  14.398  15.774  10.975
  150PROX   H3111464  14.425  15.880  10.957
  150PROX   H3211465  14.415  15.757  11.084
  150PROX   H3311466  14.484  15.712  10.940
  151PROX    O111467  14.230  15.799  10.819
  151PROX    C111468  14.112  15.753  10.757
  151PROX   H1111469  14.061  15.660  10.789
  151PROX   H1311470  14.046  15.839  10.782
  151PROX    C211471  14.129  15.736  10.602
  151PROX   H2111472  14.160  15.831  10.554
  151PROX    C311473  13.992  15.696  10.545
  151PROX   H3111474  13.909  15.752  10.591
  151PROX   H3211475  13.995  15.721  10.436
  151PROX   H3311476  13.979  15.586  10.550
  152PROX    O111477  14.243  15.650  10.572
  152PROX    C111478  14.263  15.634  10.433
  152PROX   H1111479  14.177  15.577  10.392
  152PROX   H1311480  14.261  15.734  10.386
  152PROX    C211481  14.396  15.564  10.401
  152PROX   H2111482  14.393  15.470  10.461
  152PROX    C311483  14.509  15.639  10.465
  152PROX   H3111484  14.529  15.724  10.396
  152PROX   H3211485  14.491  15.656  10.574
  152PROX   H3311486  14.607  15.588  10.459
  153PROX    O111487  14.414  15.545  10.266
  153PROX    C111488  14.329  15.461  10.200
  153PROX   H1111489  14.237  15.440  10.259
  153PROX   H1311490  14.288  15.502  10.106
  153PROX    C211491  14.391  15.320  10.164
  153PROX   H2111492  14.461  15.339  10.080
  153PROX    C311493  14.294  15.233  10.093
  153PROX   H3111494  14.198  15.213  10.144
  153PROX   H3211495  14.269  15.287   9.999
  153PROX   H3311496  14.338  15.137  10.059
  154PROX    O111497  14.448  15.262  10.276
  154PROX    C111498  14.518  15.139  10.245
  154PROX   H1111499  14.435  15.064  10.241
  154PROX   H1311500  14.565  15.146  10.145
  154PROX    C211501  14.625  15.105  10.352
  154PROX   H2111502  14.583  15.093  10.454
  154PROX    C311503  14.726  15.220  10.357
  154PROX   H3111504  14.783  15.212  10.453
  154PROX   H3211505  14.798  15.214  10.273
  154PROX   H3311506  14.673  15.317  10.352
  155PROX    O111507  14.700  14.988  10.312
  155PROX    C111508  14.612  14.875  10.303
  155PROX   H1111509  14.534  14.885  10.382
  155PROX   H1311510  14.570  14.861  10.201
  155PROX    C211511  14.690  14.747  10.333
  155PROX   H2111512  14.734  14.752  10.435
  155PROX    C311513  14.793  14.715  10.224
  155PROX   H3111514  14.754  14.719  10.120
  155PROX   H3211515  14.851  14.810  10.224
  155PROX   H3311516  14.856  14.628  10.251
  156PROX    O111517  14.604  14.632  10.331
  156PROX    C111518  14.539  14.607  10.456
  156PROX   H1111519  14.591  14.528  10.514
  156PROX   H1311520  14.538  14.700  10.516
  156PROX    C211521  14.389  14.564  10.431
  156PROX   H2111522  14.380  14.474  10.366
  156PROX    C311523  14.292  14.661  10.368
  156PROX   H3111524  14.187  14.627  10.372
  156PROX   H3211525  14.312  14.758  10.419
  156PROX   H3311526  14.304  14.674  10.258
  157PROX    O111527  14.326  14.512  10.546
  157PROX    C111528  14.337  14.603  10.657
  157PROX   H1111529  14.430  14.572  10.709
  157PROX   H1311530  14.350  14.711  10.636
  157PROX    C211531  14.214  14.578  10.747
  157PROX   H2111532  14.199  14.469  10.758
  157PROX    C311533  14.081  14.621  10.701
  157PROX   H3111534  14.080  14.729  10.674
  157PROX   H3211535  14.063  14.572  10.603
  157PROX   H3311536  13.999  14.586  10.767
  158PROX    O111537  14.237  14.645  10.875
  158PROX    C111538  14.302  14.560  10.962
  158PROX   H1111539  14.229  14.487  11.003
  158PROX   H1311540  14.379  14.500  10.908
  158PROX    C211541  14.371  14.638  11.073
  158PROX   H2111542  14.442  14.571  11.125
  158PROX    C311543  14.272  14.691  11.182
  158PROX   H3111544  14.317  14.712  11.281
  158PROX   H3211545  14.197  14.767  11.153
  158PROX   H3311546  14.219  14.595  11.198
  159PROX    O111547  14.437  14.751  11.016
  159PROX    C111548  14.567  14.728  10.960
  159PROX   H1111549  14.641  14.737  11.043
  159PROX   H1311550  14.564  14.624  10.923
  159PROX    C211551  14.601  14.819  10.836
  159PROX   H2111552  14.547  14.794  10.742
  159PROX    C311553  14.757  14.818  10.812
  159PROX   H3111554  14.768  14.725  10.752
  159PROX   H3211555  14.809  14.891  10.746
  159PROX   H3311556  14.815  14.811  10.906
  160PROX    O111557  14.561  14.954  10.867
  160PROX    C111558  14.591  15.046  10.756
  160PROX   H1111559  14.700  15.068  10.768
  160PROX   H1311560  14.581  15.006  10.653
  160PROX    C211561  14.498  15.170  10.772
  160PROX   H2111562  14.401  15.124  10.798
  160PROX    C311563  14.470  15.257  10.652
  160PROX   H3111564  14.571  15.286  10.615
  160PROX   H3211565  14.436  15.195  10.566
  160PROX   H3311566  14.410  15.347  10.676
  161PROX    O111567  14.557  15.242  10.871
  161PROX    C111568  14.454  15.300  10.949
  161PROX   H1111569  14.411  15.388  10.896
  161PROX   H1311570  14.380  15.224  10.979
  161PROX    C211571  14.507  15.361  11.080
  161PROX   H2111572  14.553  15.273  11.130
  161PROX    C311573  14.385  15.411  11.169
  161PROX   H3111574  14.349  15.509  11.131
  161PROX   H3211575  14.299  15.341  11.172
  161PROX   H3311576  14.419  15.421  11.274
  162PROX    O111577  14.589  15.478  11.057
  162PROX    C111578  14.709  15.471  11.128
  162PROX   H1111579  14.764  15.379  11.100
  162PROX   H1311580  14.772  15.555  11.091
  162PROX    C211581  14.702  15.472  11.282
  162PROX   H2111582  14.627  15.398  11.318
  162PROX    C311583  14.663  15.605  11.346
  162PROX   H3111584  14.642  15.598  11.455
  162PROX   H3211585  14.743  15.681  11.333
  162PROX   H3311586  14.572  15.645  11.298
  163PROX    O111587  14.832  15.438  11.326
  163PROX    C111588  14.833  15.371  11.456
  163PROX   H1111589  14.794  15.447  11.527
  163PROX   H1311590  14.775  15.277  11.453
  163PROX    C211591  14.976  15.346  11.500
  163PROX   H2111592  15.016  15.448  11.519
  163PROX    C311593  15.064  15.274  11.396
  163PROX   H3111594  15.054  15.326  11.299
  163PROX   H3211595  15.170  15.270  11.430
  163PROX   H3311596  15.025  15.174  11.368
  164PROX    O111597  14.981  15.268  11.618
  164PROX    C111598  14.925  15.331  11.739
  164PROX   H1111599  14.814  15.334  11.747
  164PROX   H1311600  14.951  15.263  11.823
  164PROX    C211601  14.995  15.468  11.771
  164PROX   H2111602  15.099  15.461  11.734
  164PROX    C311603  14.986  15.512  11.918
  164PROX   H3111604  15.026  15.424  11.971
  164PROX   H3211605  15.055  15.596  11.938
  164PROX   H3311606  14.880  15.529  11.947
  165PROX    O111607  14.920  15.572  11.706
  165PROX    C111608  14.974  15.703  11.712
  165PROX   H1111609  14.939  15.752  11.804
  165PROX   H1311610  15.085  15.708  11.705
  165PROX    C211611  14.922  15.788  11.593
  165PROX   H2111612  14.811  15.793  11.593
  165PROX    C311613  14.966  15.733  11.459
  165PROX   H3111614  14.935  15.628  11.444
  165PROX   H3211615  14.924  15.776  11.366
  165PROX   H3311616  15.076  15.727  11.452
  166ETHO    O111617  14.980  15.921  11.602
  166ETHO    C111618  14.899  16.004  11.687
  166ETHO   H1111619  14.869  15.943  11.776
  166ETHO   H1311620  14.809  16.026  11.626
  166ETHO    C211621  14.973  16.131  11.743
  166ETHO   H2111622  15.076  16.099  11.767
  166ETHO   H2311623  14.917  16.165  11.833
  167ETHO    O111624  14.972  16.230  11.642
  167ETHO    C111625  14.988  16.361  11.688
  167ETHO   H1111626  14.886  16.404  11.699
  167ETHO   H1311627  15.041  16.371  11.785
  167ETHO    C211628  15.058  16.459  11.593
  167ETHO   H2111629  15.048  16.566  11.620
  167ETHO   H2311630  15.010  16.467  11.494
  168ETHO    O111631  15.190  16.421  11.569
  168ETHO    C111632  15.261  16.522  11.490
  168ETHO   H1111633  15.245  16.625  11.531
  168ETHO   H1311634  15.219  16.529  11.388
  168ETHO    C211635  15.414  16.501  11.474
  168ETHO   H2111636  15.460  16.567  11.397
  168ETHO   H2311637  15.428  16.393  11.452
  169ETHO    O111638  15.478  16.530  11.593
  169ETHO    C111639  15.616  16.487  11.584
  169ETHO   H1111640  15.622  16.376  11.593
  169ETHO   H1311641  15.665  16.522  11.491
  169ETHO    C211642  15.691  16.547  11.698
  169ETHO   H2111643  15.782  16.497  11.738
  169ETHO   H2311644  15.621  16.545  11.785
  170ETHO    O111645  15.715  16.689  11.671
  170ETHO    C111646  15.827  16.714  11.591
  170ETHO   H1111647  15.826  16.654  11.497
  170ETHO   H1311648  15.917  16.681  11.647
  170ETHO    C211649  15.836  16.865  11.546
  170ETHO   H2111650  15.940  16.881  11.510
  170ETHO   H2311651  15.809  16.937  11.626
  171ETHO    O111652  15.760  16.884  11.430
  171ETHO    C111653  15.623  16.909  11.462
  171ETHO   H1111654  15.575  16.814  11.493
  171ETHO   H1311655  15.605  16.989  11.537
  171ETHO    C211656  15.536  16.956  11.341
  171ETHO   H2111657  15.432  16.930  11.371
  171ETHO   H2311658  15.572  16.901  11.251
  172ETHO    O111659  15.557  17.099  11.316
  172ETHO    C111660  15.464  17.149  11.220
  172ETHO   H1111661  15.364  17.151  11.267
  172ETHO   H1311662  15.465  17.080  11.134
  172ETHO    C211663  15.511  17.286  11.162
  172ETHO   H2111664  15.469  17.307  11.062
  172ETHO   H2311665  15.621  17.274  11.154
  173ETHO    O111666  15.477  17.396  11.244
  173ETHO    C111667  15.544  17.385  11.374
  173ETHO   H1111668  15.481  17.317  11.437
  173ETHO   H1311669  15.643  17.342  11.348
  173ETHO    C211670  15.557  17.523  11.444
  173ETHO   H2111671  15.457  17.571  11.434
  173ETHO   H2311672  15.571  17.504  11.553
  174ETHO    O111673  15.655  17.616  11.402
  174ETHO    C111674  15.626  17.675  11.273
  174ETHO   H1111675  15.626  17.590  11.201
  174ETHO   H1311676  15.533  17.734  11.280
  174ETHO    C211677  15.745  17.754  11.207
  174ETHO   H2111678  15.765  17.840  11.275
  174ETHO   H2311679  15.711  17.800  11.111
  175ETHO    O111680  15.862  17.683  11.177
  175ETHO    C111681  15.968  17.771  11.158
  175ETHO   H1111682  15.953  17.851  11.233
  175ETHO   H1311683  16.065  17.719  11.171
  175ETHO    C211684  15.986  17.818  11.006
  175ETHO   H2111685  15.974  17.728  10.942
  175ETHO   H2311686  16.093  17.846  10.995
  176ETHO    O111687  15.910  17.933  10.966
  176ETHO    C111688  15.907  17.943  10.824
  176ETHO   H1111689  15.887  17.841  10.783
  176ETHO   H1311690  15.817  18.006  10.803
  176ETHO    C211691  16.034  17.999  10.760
  176ETHO   H2111692  16.037  17.989  10.649
  176ETHO   H2311693  16.125  17.953  10.804
  177ETHO    O111694  16.042  18.141  10.782
  177ETHO    C111695  15.985  18.205  10.671
  177ETHO   H1111696  15.892  18.153  10.639
  177ETHO   H1311697  16.063  18.189  10.593
  177ETHO    C211698  15.964  18.356  10.685
  177ETHO   H2111699  15.921  18.379  10.785
  177ETHO   H2311700  15.895  18.403  10.611
  178ETHO    O111701  16.092  18.425  10.674
  178ETHO    C111702  16.096  18.550  10.742
  178ETHO   H1111703  16.043  18.535  10.839
  178ETHO   H1311704  16.200  18.579  10.768
  178ETHO    C211705  16.020  18.666  10.669
  178ETHO   H2111706  16.059  18.695  10.569
  178ETHO   H2311707  16.038  18.755  10.732
  179ETHO    O111708  15.878  18.647  10.648
  179ETHO    C111709  15.790  18.714  10.736
  179ETHO   H1111710  15.811  18.822  10.724
  179ETHO   H1311711  15.816  18.677  10.838
  179ETHO    C211712  15.642  18.704  10.689
  179ETHO   H2111713  15.561  18.742  10.755
  179ETHO   H2311714  15.631  18.595  10.678
  180ETHO    O111715  15.622  18.776  10.563
  180ETHO    C111716  15.496  18.750  10.500
  180ETHO   H1111717  15.489  18.643  10.470
  180ETHO   H1311718  15.422  18.772  10.579
  180ETHO    C211719  15.484  18.842  10.380
  180ETHO   H2111720  15.547  18.815  10.293
  180ETHO   H2311721  15.506  18.943  10.420
  181ETHO    O111722  15.355  18.858  10.321
  181ETHO    C111723  15.370  18.898  10.186
  181ETHO   H1111724  15.454  18.971  10.174
  181ETHO   H1311725  15.273  18.945  10.158
  181ETHO    C211726  15.376  18.784  10.081
  181ETHO   H2111727  15.338  18.826   9.986
  181ETHO   H2311728  15.310  18.698  10.106
  182ETHO    O111729  15.511  18.739  10.070
  182ETHO    C111730  15.539  18.647   9.969
  182ETHO   H1111731  15.467  18.563   9.961
  182ETHO   H1311732  15.549  18.699   9.871
  182ETHO    C211733  15.672  18.584   9.994
  182ETHO   H2111734  15.751  18.661  10.005
  182ETHO   H2311735  15.702  18.518   9.910
  183ETHO    O111736  15.695  18.496  10.106
  183ETHO    C111737  15.715  18.563  10.221
  183ETHO   H1111738  15.635  18.639  10.231
  183ETHO   H1311739  15.809  18.618  10.198
  183ETHO    C211740  15.726  18.469  10.345
  183ETHO   H2111741  15.775  18.528  10.425
  183ETHO   H2311742  15.798  18.385  10.339
  184ETHO    O111743  15.593  18.430  10.393
  184ETHO    C111744  15.593  18.339  10.506
  184ETHO   H1111745  15.635  18.248  10.458
  184ETHO   H1311746  15.652  18.387  10.588
  184ETHO    C211747  15.455  18.299  10.570
  184ETHO   H2111748  15.477  18.215  10.638
  184ETHO   H2311749  15.375  18.266  10.500
  185ETHO    O111750  15.404  18.399  10.663
  185ETHO    C111751  15.278  18.363  10.718
  185ETHO   H1111752  15.240  18.269  10.673
  185ETHO   H1311753  15.290  18.353  10.828
  185ETHO    C211754  15.173  18.469  10.684
  185ETHO   H2111755  15.210  18.574  10.684
  185ETHO   H2311756  15.089  18.459  10.756
  186ETHO    O111757  15.117  18.444  10.556
  186ETHO    C111758  15.004  18.532  10.530
  186ETHO   H1111759  15.001  18.623  10.595
  186ETHO   H1311760  15.012  18.575  10.428
  186ETHO    C211761  14.865  18.472  10.561
  186ETHO   H2111762  14.854  18.372  10.513
  186ETHO   H2311763  14.795  18.530  10.496
  187ETHO    O111764  14.822  18.491  10.699
  187ETHO    C111765  14.685  18.455  10.715
  187ETHO   H1111766  14.669  18.476  10.823
  187ETHO   H1311767  14.618  18.520  10.655
  187ETHO    C211768  14.664  18.294  10.706
  187ETHO   H2111769  14.766  18.254  10.726
  187ETHO   H2311770  14.651  18.256  10.602
  188ETHO    O111771  14.574  18.240  10.794
  188ETHO    C111772  14.581  18.096  10.786
  188ETHO   H1111773  14.685  18.057  10.796
  188ETHO   H1311774  14.548  18.070  10.684
  188ETHO    C211775  14.505  18.033  10.907
  188ETHO   H2111776  14.507  17.929  10.868
  188ETHO   H2311777  14.400  18.068  10.921
  189ETHO    O111778  14.554  18.045  11.039
  189ETHO    C111779  14.645  17.934  11.072
  189ETHO   H1111780  14.588  17.841  11.094
  189ETHO   H1311781  14.722  17.929  10.993
  189ETHO    C211782  14.712  17.967  11.212
  189ETHO   H2111783  14.755  17.873  11.250
  189ETHO   H2311784  14.624  17.992  11.275
  190ETHO    O111785  14.805  18.083  11.219
  190ETHO    C111786  14.862  18.093  11.344
  190ETHO   H1111787  14.876  17.992  11.388
  190ETHO   H1311788  14.793  18.148  11.411
  190ETHO    C211789  14.995  18.171  11.364
  190ETHO   H2111790  15.068  18.119  11.299
  190ETHO   H2311791  15.024  18.168  11.472
  191ETHO    O111792  14.991  18.311  11.330
  191ETHO    C111793  14.993  18.401  11.444
  191ETHO   H1111794  14.899  18.387  11.501
  191ETHO   H1311795  15.078  18.383  11.514
  191ETHO    C211796  15.007  18.548  11.409
  191ETHO   H2111797  15.008  18.613  11.499
  191ETHO   H2311798  14.919  18.566  11.343
  192ETHO    O111799  15.125  18.580  11.336
  192ETHO    C111800  15.120  18.724  11.321
  192ETHO   H1111801  15.111  18.772  11.421
  192ETHO   H1311802  15.030  18.751  11.261
  192ETHO    C211803  15.242  18.786  11.249
  192ETHO   H2111804  15.213  18.892  11.231
  192ETHO   H2311805  15.276  18.743  11.152
  193ETHO    O111806  15.361  18.788  11.330
  193ETHO    C111807  15.452  18.889  11.285
  193ETHO   H1111808  15.424  18.925  11.184
  193ETHO   H1311809  15.449  18.981  11.348
  193ETHO    C211810  15.594  18.838  11.273
  193ETHO   H2111811  15.616  18.794  11.372
  193ETHO   H2311812  15.658  18.920  11.234
  194ETHO    O111813  15.581  18.734  11.177
  194ETHO    C111814  15.690  18.645  11.180
  194ETHO   H1111815  15.679  18.591  11.276
  194ETHO   H1311816  15.787  18.697  11.193
  194ETHO    C211817  15.695  18.535  11.077
  194ETHO   H2111818  15.785  18.471  11.093
  194ETHO   H2311819  15.698  18.586  10.979
  195ETHO    O111820  15.582  18.455  11.084
  195ETHO    C111821  15.596  18.349  10.988
  195ETHO   H1111822  15.586  18.386  10.884
  195ETHO   H1311823  15.690  18.290  10.996
  195ETHO    C211824  15.493  18.240  11.005
  195ETHO   H2111825  15.486  18.177  10.914
  195ETHO   H2311826  15.393  18.287  11.006
  196ETHO    O111827  15.525  18.160  11.115
  196ETHO    C111828  15.465  18.025  11.105
  196ETHO   H1111829  15.517  17.979  11.019
  196ETHO   H1311830  15.499  17.964  11.192
  196ETHO    C211831  15.313  18.034  11.084
  196ETHO   H2111832  15.272  18.097  11.166
  196ETHO   H2311833  15.276  17.930  11.097
  197ETHO    O111834  15.254  18.077  10.956
  197ETHO    C111835  15.110  18.061  10.973
  197ETHO   H1111836  15.099  17.951  10.975
  197ETHO   H1311837  15.067  18.108  11.064
  197ETHO    C211838  15.024  18.108  10.843
  197ETHO   H2111839  15.035  18.218  10.839
  197ETHO   H2311840  14.917  18.089  10.864
  198ETHO    O111841  15.069  18.047  10.724
  198ETHO    C111842  15.007  18.102  10.605
  198ETHO   H1111843  14.906  18.062  10.582
  198ETHO   H1311844  15.005  18.212  10.622
  198ETHO    C211845  15.105  18.070  10.487
  198ETHO   H2111846  15.211  18.095  10.507
  198ETHO   H2311847  15.080  18.133  10.399
  199ETHO    O111848  15.089  17.933  10.446
  199ETHO    C111849  15.166  17.889  10.335
  199ETHO   H1111850  15.271  17.916  10.360
  199ETHO   H1311851  15.136  17.924  10.233
  199ETHO    C211852  15.155  17.736  10.333
  199ETHO   H2111853  15.142  17.703  10.438
  199ETHO   H2311854  15.237  17.692  10.272
  200ETHO    O111855  15.040  17.696  10.267
  200ETHO    C111856  15.032  17.559  10.260
  200ETHO   H1111857  15.085  17.513  10.174
  200ETHO   H1311858  15.064  17.517  10.357
  200ETHO    C211859  14.881  17.526  10.240
  200ETHO   H2111860  14.824  17.569  10.325
  200ETHO   H2311861  14.864  17.416  10.237
  201ETHO    O111862  14.829  17.586  10.125
  201ETHO    C111863  14.737  17.694  10.156
  201ETHO   H1111864  14.790  17.771  10.218
  201ETHO   H1311865  14.643  17.665  10.207
  201ETHO    C211866  14.683  17.751  10.017
  201ETHO   H2111867  14.772  17.775   9.955
  201ETHO   H2311868  14.635  17.850  10.038
  202ETHO    O111869  14.582  17.674   9.953
  202ETHO    C111870  14.524  17.754   9.848
  202ETHO   H1111871  14.428  17.712   9.812
  202ETHO   H1311872  14.506  17.861   9.871
  202ETHO    C211873  14.609  17.740   9.722
  202ETHO   H2111874  14.716  17.758   9.741
  202ETHO   H2311875  14.581  17.807   9.638
  203ETHO    O111876  14.585  17.616   9.655
  203ETHO    C111877  14.666  17.593   9.539
  203ETHO   H1111878  14.767  17.622   9.573
  203ETHO   H1311879  14.621  17.644   9.451
  203ETHO    C211880  14.667  17.440   9.507
  203ETHO   H2111881  14.691  17.374   9.593
  203ETHO   H2311882  14.761  17.432   9.447
  204ETHO    O111883  14.550  17.377   9.445
  204ETHO    C111884  14.433  17.394   9.522
  204ETHO   H1111885  14.450  17.336   9.615
  204ETHO   H1311886  14.409  17.502   9.536
  204ETHO    C211887  14.317  17.321   9.446
  204ETHO   H2111888  14.238  17.307   9.523
  204ETHO   H2311889  14.325  17.217   9.406
  205ETHO    O111890  14.264  17.409   9.349
  205ETHO    C111891  14.117  17.411   9.345
  205ETHO   H1111892  14.077  17.477   9.425
  205ETHO   H1311893  14.074  17.311   9.363
  205ETHO    C211894  14.061  17.475   9.215
  205ETHO   H2111895  14.107  17.574   9.196
  205ETHO   H2311896  13.951  17.487   9.230
  206ETHO    O111897  14.102  17.397   9.099
  206ETHO    C111898  14.075  17.458   8.976
  206ETHO   H1111899  13.983  17.518   8.988
  206ETHO   H1311900  14.153  17.531   8.944
  206ETHO    C211901  14.040  17.369   8.863
  206ETHO   H2111902  14.127  17.326   8.809
  206ETHO   H2311903  13.983  17.285   8.907
  207ETHO    O111904  13.950  17.434   8.768
  207ETHO    C111905  13.916  17.354   8.658
  207ETHO   H1111906  13.879  17.254   8.689
  207ETHO   H1311907  14.001  17.341   8.587
  207ETHO    C211908  13.792  17.410   8.574
  207ETHO   H2111909  13.749  17.327   8.514
  207ETHO   H2311910  13.835  17.491   8.512
  208ETHO    O111911  13.687  17.459   8.655
  208ETHO    C111912  13.611  17.352   8.698
  208ETHO   H1111913  13.569  17.296   8.612
  208ETHO   H1311914  13.675  17.276   8.749
  208ETHO    C211915  13.491  17.380   8.794
  208ETHO   H2111916  13.432  17.286   8.801
  208ETHO   H2311917  13.424  17.457   8.749
  209ETHO    O111918  13.536  17.422   8.917
  209ETHO    C111919  13.429  17.427   9.010
  209ETHO   H1111920  13.361  17.339   9.006
  209ETHO   H1311921  13.373  17.520   8.982
  209ETHO    C211922  13.485  17.442   9.154
  209ETHO   H2111923  13.408  17.477   9.227
  209ETHO   H2311924  13.568  17.514   9.140
  210ETHO    O111925  13.541  17.334   9.216
  210ETHO    C111926  13.448  17.244   9.276
  210ETHO   H1111927  13.394  17.289   9.362
  210ETHO   H1311928  13.360  17.235   9.209
  210ETHO    C211929  13.513  17.107   9.329
  210ETHO   H2111930  13.569  17.057   9.248
  210ETHO   H2311931  13.434  17.038   9.366
  211ETHO    O111932  13.598  17.140   9.444
  211ETHO    C111933  13.671  17.026   9.480
  211ETHO   H1111934  13.597  16.944   9.491
  211ETHO   H1311935  13.740  17.007   9.395
  211ETHO    C211936  13.754  17.040   9.607
  211ETHO   H2111937  13.689  17.042   9.697
  211ETHO   H2311938  13.821  17.128   9.613
  212ETHO    O111939  13.817  16.912   9.619
  212ETHO    C111940  13.929  16.911   9.713
  212ETHO   H1111941  13.996  16.999   9.704
  212ETHO   H1311942  13.882  16.915   9.814
  212ETHO    C211943  14.010  16.784   9.698
  212ETHO   H2111944  14.083  16.789   9.781
  212ETHO   H2311945  14.062  16.787   9.600
  213ETHO    O111946  13.938  16.663   9.726
  213ETHO    C111947  14.024  16.548   9.729
  213ETHO   H1111948  14.096  16.553   9.645
  213ETHO   H1311949  14.079  16.545   9.826
  213ETHO    C211950  13.947  16.419   9.721
  213ETHO   H2111951  13.861  16.428   9.790
  213ETHO   H2311952  14.008  16.331   9.749
  214ETHO    O111953  13.919  16.408   9.578
  214ETHO    C111954  13.834  16.298   9.555
  214ETHO   H1111955  13.728  16.330   9.557
  214ETHO   H1311956  13.851  16.227   9.639
  214ETHO    C211957  13.865  16.224   9.426
  214ETHO   H2111958  13.882  16.291   9.339
  214ETHO   H2311959  13.781  16.153   9.414
  215ETHO    O111960  13.986  16.151   9.434
  215ETHO    C111961  14.012  16.073   9.318
  215ETHO   H1111962  13.918  16.019   9.292
  215ETHO   H1311963  14.015  16.144   9.233
  215ETHO    C211964  14.126  15.971   9.325
  215ETHO   H2111965  14.217  16.028   9.353
  215ETHO   H2311966  14.145  15.928   9.224
  216ETHO    O111967  14.125  15.868   9.417
  216ETHO    C111968  14.261  15.814   9.427
  216ETHO   H1111969  14.336  15.895   9.443
  216ETHO   H1311970  14.280  15.762   9.332
  216ETHO    C211971  14.256  15.710   9.540
  216ETHO   H2111972  14.358  15.668   9.550
  216ETHO   H2311973  14.185  15.630   9.511
  217ETHO    O111974  14.220  15.753   9.669
  217ETHO    C111975  14.200  15.642   9.756
  217ETHO   H1111976  14.125  15.574   9.709
  217ETHO   H1311977  14.294  15.588   9.777
  217ETHO    C211978  14.143  15.706   9.883
  217ETHO   H2111979  14.059  15.768   9.845
  217ETHO   H2311980  14.218  15.773   9.930
  218ETHO    O111981  14.092  15.607   9.981
  218ETHO    C111982  14.002  15.666  10.068
  218ETHO   H1111983  13.924  15.724  10.013
  218ETHO   H1311984  14.053  15.738  10.136
  218ETHO    C211985  13.940  15.574  10.170
  218ETHO   H2111986  13.895  15.616  10.262
  218ETHO   H2311987  14.014  15.502  10.211
  219ETHO    O111988  13.842  15.496  10.106
  219ETHO    C111989  13.767  15.425  10.202
  219ETHO   H1111990  13.720  15.494  10.275
  219ETHO   H1311991  13.686  15.374  10.145
  219ETHO    C211992  13.849  15.312  10.279
  219ETHO   H2111993  13.865  15.229  10.207
  219ETHO   H2311994  13.783  15.279  10.362
  220ETHO    O111995  13.957  15.347  10.369
  220ETHO    C111996  14.035  15.239  10.423
  220ETHO   H1111997  14.090  15.205  10.333
  220ETHO   H1311998  13.978  15.149  10.454
  220ETHO    C211999  14.112  15.292  10.546
  220ETHO   H2112000  14.107  15.403  10.545
  220ETHO   H2312001  14.217  15.256  10.536
  221ETHO    O112002  14.065  15.248  10.672
  221ETHO    C112003  14.116  15.327  10.781
  221ETHO   H1112004  14.227  15.326  10.785
  221ETHO   H1312005  14.076  15.430  10.769
  221ETHO    C212006  14.051  15.287  10.919
  221ETHO   H2112007  13.943  15.270  10.896
  221ETHO   H2312008  14.046  15.386  10.970
  222ETHO    O112009  14.124  15.186  10.986
  222ETHO    C112010  14.054  15.169  11.111
  222ETHO   H1112011  14.077  15.260  11.172
  222ETHO   H1312012  13.947  15.173  11.081
  222ETHO    C212013  14.094  15.036  11.178
  222ETHO   H2112014  14.113  14.957  11.103
  222ETHO   H2312015  14.001  15.007  11.232
  223ETHO    O112016  14.203  15.043  11.273
  223ETHO    C112017  14.325  15.043  11.215
  223ETHO   H1112018  14.338  14.974  11.130
  223ETHO   H1312019  14.354  15.144  11.177
  223ETHO    C212020  14.425  14.996  11.318
  223ETHO   H2112021  14.436  14.886  11.306
  223ETHO   H2312022  14.388  15.022  11.419
  224ETHO    O112023  14.543  15.062  11.289
  224ETHO    C112024  14.624  15.006  11.190
  224ETHO   H1112025  14.666  14.912  11.231
  224ETHO   H1312026  14.563  14.966  11.106
  224ETHO    C212027  14.742  15.093  11.160
  224ETHO   H2112028  14.769  15.157  11.246
  224ETHO   H2312029  14.715  15.158  11.074
  225ETHO    O112030  14.855  15.018  11.135
  225ETHO    C112031  14.957  15.105  11.080
  225ETHO   H1112032  15.049  15.076  11.135
  225ETHO   H1312033  14.931  15.211  11.100
  225ETHO    C212034  14.973  15.095  10.928
  225ETHO   H2112035  14.875  15.066  10.885
  225ETHO   H2312036  15.041  15.017  10.890
  226ETHO    O112037  15.005  15.221  10.872
  226ETHO    C112038  14.968  15.215  10.732
  226ETHO   H1112039  15.044  15.154  10.679
  226ETHO   H1312040  14.869  15.169  10.711
  226ETHO    C212041  14.978  15.361  10.662
  226ETHO   H2112042  15.000  15.341  10.555
  226ETHO   H2312043  15.064  15.414  10.707
  227ETHO    O112044  14.857  15.445  10.667
  227ETHO    C112045  14.847  15.503  10.790
  227ETHO   H1112046  14.937  15.565  10.812
  227ETHO   H1312047  14.840  15.430  10.874
  227ETHO    C212048  14.714  15.594  10.790
  227ETHO   H2112049  14.683  15.614  10.894
  227ETHO   H2312050  14.638  15.525  10.748
  228ETHO    O112051  14.725  15.719  10.716
  228ETHO    C112052  14.781  15.826  10.793
  228ETHO   H1112053  14.733  15.848  10.891
  228ETHO   H1312054  14.886  15.791  10.808
  228ETHO    C212055  14.776  15.964  10.726
  228ETHO   H2112056  14.799  15.971  10.617
  228ETHO   H2312057  14.850  16.019  10.788
  229ETHO    O112058  14.645  16.032  10.744
  229ETHO    C112059  14.544  15.969  10.663
  229ETHO   H1112060  14.515  15.877  10.719
  229ETHO   H1312061  14.585  15.945  10.563
  229ETHO    C212062  14.411  16.045  10.656
  229ETHO   H2112063  14.360  16.050  10.755
  229ETHO   H2312064  14.359  15.995  10.572
  230ETHO    O112065  14.427  16.183  10.603
  230ETHO    C112066  14.447  16.273  10.706
  230ETHO   H1112067  14.352  16.302  10.757
  230ETHO   H1312068  14.520  16.234  10.780
  230ETHO    C212069  14.520  16.400  10.649
  230ETHO   H2112070  14.616  16.366  10.605
  230ETHO   H2312071  14.512  16.487  10.717
  231ETHO    O112072  14.434  16.457  10.543
  231ETHO    C112073  14.476  16.591  10.508
  231ETHO   H1112074  14.483  16.644  10.606
  231ETHO   H1312075  14.406  16.638  10.435
  231ETHO    C212076  14.614  16.599  10.443
  231ETHO   H2112077  14.695  16.564  10.510
  231ETHO   H2312078  14.639  16.703  10.413
  232ETHO    O112079  14.628  16.513  10.329
  232ETHO    C112080  14.762  16.498  10.292
  232ETHO   H1112081  14.764  16.474  10.184
  232ETHO   H1312082  14.808  16.596  10.316
  232ETHO    C212083  14.819  16.378  10.360
  232ETHO   H2112084  14.739  16.303  10.377
  232ETHO   H2312085  14.853  16.400  10.464
  233ETHO    O112086  14.920  16.325  10.279
  233ETHO    C112087  14.966  16.208  10.346
  233ETHO   H1112088  15.020  16.245  10.435
  233ETHO   H1312089  14.879  16.146  10.375
  233ETHO    C212090  15.065  16.130  10.257
  233ETHO   H2112091  15.132  16.067  10.319
  233ETHO   H2312092  15.118  16.207  10.198
  234ETHO    O112093  14.984  16.060  10.164
  234ETHO    C112094  15.055  16.021  10.046
  234ETHO   H1112095  15.140  15.957  10.079
  234ETHO   H1312096  14.993  15.954   9.984
  234ETHO    C212097  15.107  16.138   9.958
  234ETHO   H2112098  15.021  16.208   9.948
  234ETHO   H2312099  15.123  16.094   9.857
  235ETHO    O112100  15.228  16.207   9.996
  235ETHO    C112101  15.349  16.144   9.944
  235ETHO   H1112102  15.442  16.181   9.993
  235ETHO   H1312103  15.331  16.038   9.970
  235ETHO    C212104  15.380  16.172   9.792
  235ETHO   H2112105  15.283  16.160   9.739
  235ETHO   H2312106  15.452  16.096   9.754
  236ETHO    O112107  15.421  16.305   9.770
  236ETHO    C112108  15.549  16.333   9.810
  236ETHO   H1112109  15.617  16.257   9.766
  236ETHO   H1312110  15.563  16.317   9.919
  236ETHO    C212111  15.596  16.478   9.777
  236ETHO   H2112112  15.682  16.500   9.844
  236ETHO   H2312113  15.520  16.553   9.810
  237ETHO    O112114  15.627  16.484   9.637
  237ETHO    C112115  15.518  16.518   9.541
  237ETHO   H1112116  15.482  16.428   9.486
  237ETHO   H1312117  15.436  16.572   9.594
  237ETHO    C212118  15.559  16.638   9.446
  237ETHO   H2112119  15.472  16.662   9.382
  237ETHO   H2312120  15.644  16.611   9.380
  238ETHO    O112121  15.584  16.751   9.525
  238ETHO    C112122  15.651  16.850   9.451
  238ETHO   H1112123  15.583  16.897   9.377
  238ETHO   H1312124  15.739  16.809   9.396
  238ETHO    C212125  15.701  16.974   9.525
  238ETHO   H2112126  15.632  17.027   9.594
  238ETHO   H2312127  15.713  17.039   9.436
  239ETHO    O112128  15.827  16.960   9.596
  239ETHO    C112129  15.885  17.086   9.633
  239ETHO   H1112130  15.891  17.159   9.549
  239ETHO   H1312131  15.804  17.134   9.692
  239ETHO    C212132  16.014  17.073   9.714
  239ETHO   H2112133  16.054  17.171   9.747
  239ETHO   H2312134  16.004  17.007   9.802
  240ETHO    O112135  16.114  17.012   9.636
  240ETHO    C112136  16.233  16.982   9.701
  240ETHO   H1112137  16.217  16.909   9.783
  240ETHO   H1312138  16.272  17.074   9.751
  240ETHO    C212139  16.328  16.916   9.605
  240ETHO   H2112140  16.279  16.823   9.571
  240ETHO   H2312141  16.416  16.890   9.667
  241ETHO    O112142  16.370  16.996   9.499
  241ETHO    C112143  16.426  16.923   9.390
  241ETHO   H1112144  16.533  16.899   9.408
  241ETHO   H1312145  16.385  16.820   9.394
  241ETHO    C212146  16.406  16.988   9.254
  241ETHO   H2112147  16.304  17.031   9.247
  241ETHO   H2312148  16.420  16.918   9.169
  242ETHO    O112149  16.498  17.091   9.228
  242ETHO    C112150  16.485  17.173   9.112
  242ETHO   H1112151  16.375  17.186   9.099
  242ETHO   H1312152  16.525  17.110   9.030
  242ETHO    C212153  16.568  17.303   9.110
  242ETHO   H2112154  16.545  17.360   9.203
  242ETHO   H2312155  16.528  17.361   9.024
  243ETHO    O112156  16.710  17.280   9.089
  243ETHO    C112157  16.780  17.389   9.035
  243ETHO   H1112158  16.742  17.431   8.939
  243ETHO   H1312159  16.779  17.475   9.106
  243ETHO    C212160  16.928  17.352   9.018
  243ETHO   H2112161  16.948  17.285   9.104
  243ETHO   H2312162  16.990  17.442   9.037
  244ETHO    O112163  16.967  17.289   8.894
  244ETHO    C112164  16.921  17.156   8.871
  244ETHO   H1112165  16.811  17.145   8.862
  244ETHO   H1312166  16.969  17.084   8.940
  244ETHO    C212167  16.966  17.130   8.726
  244ETHO   H2112168  16.986  17.021   8.712
  244ETHO   H2312169  17.070  17.169   8.724
  245ETHO    O112170  16.891  17.184   8.623
  245ETHO    C112171  16.953  17.165   8.495
  245ETHO   H1112172  17.062  17.167   8.512
  245ETHO   H1312173  16.910  17.066   8.468
  245ETHO    C212174  16.912  17.275   8.392
  245ETHO   H2112175  16.975  17.256   8.302
  245ETHO   H2312176  16.943  17.377   8.420
  246ETHO    O112177  16.773  17.268   8.370
  246ETHO    C112178  16.730  17.387   8.302
  246ETHO   H1112179  16.788  17.398   8.208
  246ETHO   H1312180  16.747  17.474   8.370
  246ETHO    C212181  16.582  17.383   8.274
  246ETHO   H2112182  16.546  17.487   8.260
  246ETHO   H2312183  16.534  17.339   8.364
  247ETHO    O112184  16.553  17.288   8.170
  247ETHO    C112185  16.414  17.258   8.151
  247ETHO   H1112186  16.412  17.158   8.105
  247ETHO   H1312187  16.356  17.246   8.246
  247ETHO    C212188  16.339  17.364   8.075
  247ETHO   H2112189  16.387  17.393   7.979
  247ETHO   H2312190  16.237  17.327   8.049
  248ETHO    O112191  16.332  17.481   8.151
  248ETHO    C112192  16.242  17.573   8.100
  248ETHO   H1112193  16.269  17.577   7.992
  248ETHO   H1312194  16.136  17.548   8.120
  248ETHO    C212195  16.258  17.712   8.162
  248ETHO   H2112196  16.184  17.775   8.108
  248ETHO   H2312197  16.364  17.745   8.147
  249ETHO    O112198  16.215  17.710   8.295
  249ETHO    C112199  16.239  17.839   8.353
  249ETHO   H1112200  16.347  17.866   8.352
  249ETHO   H1312201  16.188  17.923   8.300
  249ETHO    C212202  16.194  17.837   8.501
  249ETHO   H2112203  16.234  17.931   8.546
  249ETHO   H2312204  16.241  17.753   8.556
  250ETHO    O112205  16.054  17.838   8.492
  250ETHO    C112206  15.993  17.847   8.626
  250ETHO   H1112207  15.889  17.813   8.605
  250ETHO   H1312208  16.033  17.772   8.697
  250ETHO    C212209  15.992  17.995   8.679
  250ETHO   H2112210  15.904  17.992   8.747
  250ETHO   H2312211  15.971  18.051   8.586
  251ETHO    O112212  16.105  18.038   8.750
  251ETHO    C112213  16.103  18.185   8.758
  251ETHO   H1112214  16.000  18.212   8.788
  251ETHO   H1312215  16.108  18.232   8.657
  251ETHO    C212216  16.219  18.239   8.833
  251ETHO   H2112217  16.225  18.209   8.940
  251ETHO   H2312218  16.212  18.350   8.831
  252ETHO    O112219  16.344  18.206   8.777
  252ETHO    C112220  16.445  18.284   8.840
  252ETHO   H1112221  16.408  18.385   8.868
  252ETHO   H1312222  16.460  18.236   8.938
  252ETHO    C212223  16.564  18.294   8.746
  252ETHO   H2112224  16.649  18.336   8.804
  252ETHO   H2312225  16.533  18.362   8.664
  253ETHO    O112226  16.608  18.168   8.698
  253ETHO    C112227  16.740  18.176   8.648
  253ETHO   H1112228  16.814  18.186   8.729
  253ETHO   H1312229  16.742  18.259   8.575
  253ETHO    C212230  16.773  18.046   8.564
  253ETHO   H2112231  16.868  18.052   8.506
  253ETHO   H2312232  16.698  18.041   8.482
  254ETHO    O112233  16.771  17.923   8.638
  254ETHO    C112234  16.838  17.834   8.555
  254ETHO   H1112235  16.774  17.803   8.471
  254ETHO   H1312236  16.936  17.862   8.510
  254ETHO    C212237  16.874  17.704   8.633
  254ETHO   H2112238  16.898  17.625   8.560
  254ETHO   H2312239  16.796  17.657   8.696
  255ETHO    O112240  16.991  17.724   8.714
  255ETHO    C112241  17.047  17.602   8.761
  255ETHO   H1112242  17.082  17.543   8.674
  255ETHO   H1312243  16.962  17.555   8.815
  255ETHO    C212244  17.161  17.625   8.860
  255ETHO   H2112245  17.173  17.535   8.924
  255ETHO   H2312246  17.137  17.717   8.917
  256ETHO    O112247  17.282  17.651   8.787
  256ETHO    C112248  17.399  17.666   8.862
  256ETHO   H1112249  17.389  17.762   8.917
  256ETHO   H1312250  17.413  17.579   8.930
  256ETHO    C212251  17.529  17.666   8.771
  256ETHO   H2112252  17.617  17.694   8.833
  256ETHO   H2312253  17.519  17.749   8.698
  257ETHO    O112254  17.551  17.539   8.713
  257ETHO    C112255  17.678  17.547   8.647
  257ETHO   H1112256  17.759  17.565   8.721
  257ETHO   H1312257  17.674  17.632   8.575
  257ETHO    C212258  17.711  17.415   8.583
  257ETHO   H2112259  17.694  17.331   8.653
  257ETHO   H2312260  17.817  17.388   8.562
  258ETHO    O112261  17.640  17.403   8.459
  258ETHO    C112262  17.691  17.296   8.383
  258ETHO   H1112263  17.740  17.229   8.457
  258ETHO   H1312264  17.608  17.243   8.333
  258ETHO    C212265  17.800  17.333   8.286
  258ETHO   H2112266  17.760  17.397   8.205
  258ETHO   H2312267  17.835  17.241   8.233
  259ETHO    O112268  17.920  17.388   8.343
  259ETHO    C112269  17.913  17.531   8.341
  259ETHO   H1112270  17.868  17.568   8.247
  259ETHO   H1312271  17.859  17.569   8.431
  259ETHO    C212272  18.062  17.591   8.335
  259ETHO   H2112273  18.048  17.701   8.331
  259ETHO   H2312274  18.112  17.560   8.241
  260ETHO    O112275  18.132  17.548   8.450
  260ETHO    C112276  18.111  17.634   8.561
  260ETHO   H1112277  18.169  17.729   8.566
  260ETHO   H1312278  18.003  17.658   8.566
  260ETHO    C212279  18.130  17.547   8.685
  260ETHO   H2112280  18.106  17.601   8.779
  260ETHO   H2312281  18.240  17.534   8.678
  261ETHO    O112282  18.058  17.424   8.686
  261ETHO    C112283  18.067  17.361   8.818
  261ETHO   H1112284  18.174  17.341   8.840
  261ETHO   H1312285  18.026  17.430   8.895
  261ETHO    C212286  17.992  17.226   8.814
  261ETHO   H2112287  18.027  17.166   8.900
  261ETHO   H2312288  18.016  17.173   8.720
  262ETHO    O112289  17.856  17.228   8.824
  262ETHO    C112290  17.809  17.103   8.873
  262ETHO   H1112291  17.839  17.086   8.979
  262ETHO   H1312292  17.830  17.023   8.798
  262ETHO    C212293  17.648  17.094   8.882
  262ETHO   H2112294  17.608  16.991   8.881
  262ETHO   H2312295  17.609  17.130   8.784
  263ETHO    O112296  17.579  17.165   8.980
  263ETHO    C112297  17.434  17.166   8.970
  263ETHO   H1112298  17.395  17.199   9.068
  263ETHO   H1312299  17.404  17.060   8.956
  263ETHO    C212300  17.381  17.255   8.865
  263ETHO   H2112301  17.445  17.345   8.858
  263ETHO   H2312302  17.281  17.291   8.896
  264ETHO    O112303  17.365  17.177   8.749
  264ETHO    C112304  17.333  17.256   8.635
  264ETHO   H1112305  17.401  17.342   8.622
  264ETHO   H1312306  17.225  17.285   8.633
  264ETHO    C212307  17.363  17.175   8.498
  264ETHO   H2112308  17.465  17.132   8.511
  264ETHO   H2312309  17.344  17.234   8.406
  265ETHO    O112310  17.271  17.066   8.499
  265ETHO    C112311  17.282  16.983   8.383
  265ETHO   H1112312  17.386  16.961   8.349
  265ETHO   H1312313  17.245  16.880   8.398
  265ETHO    C212314  17.201  17.044   8.261
  265ETHO   H2112315  17.232  17.143   8.221
  265ETHO   H2312316  17.096  17.050   8.295
  265ETHO    OZ12317  17.204  16.955   8.148
  265ETHO   HZ112318  17.115  16.922   8.135
    1ETHO    O112319   8.999  18.860  18.142
    1ETHO   HO112320   8.935  18.903  18.085
    1ETHO    C112321   9.095  18.786  18.068
    1ETHO   H1112322   9.128  18.838  17.976
    1ETHO   H1312323   9.044  18.692  18.037
    1ETHO    C212324   9.215  18.740  18.147
    1ETHO   H2112325   9.251  18.829  18.204
    1ETHO   H2312326   9.294  18.711  18.074
    2ETHO    O112327   9.183  18.629  18.234
    2ETHO    C112328   9.275  18.525  18.224
    2ETHO   H1112329   9.287  18.494  18.118
    2ETHO   H1312330   9.374  18.558  18.261
    2ETHO    C212331   9.205  18.421  18.319
    2ETHO   H2112332   9.111  18.387  18.271
    2ETHO   H2312333   9.175  18.470  18.414
    3ETHO    O112334   9.271  18.310  18.353
    3ETHO    C112335   9.192  18.222  18.439
    3ETHO   H1112336   9.085  18.213  18.408
    3ETHO   H1312337   9.193  18.279  18.535
    3ETHO    C212338   9.256  18.085  18.451
    3ETHO   H2112339   9.216  18.017  18.530
    3ETHO   H2312340   9.364  18.093  18.474
    4ETHO    O112341   9.227  18.025  18.328
    4ETHO    C112342   9.305  17.903  18.311
    4ETHO   H1112343   9.415  17.918  18.302
    4ETHO   H1312344   9.310  17.842  18.404
    4ETHO    C212345   9.276  17.811  18.191
    4ETHO   H2112346   9.176  17.764  18.202
    4ETHO   H2312347   9.357  17.734  18.187
    5ETHO    O112348   9.288  17.883  18.068
    5ETHO    C112349   9.292  17.789  17.959
    5ETHO   H1112350   9.387  17.733  17.965
    5ETHO   H1312351   9.222  17.706  17.981
    5ETHO    C212352   9.285  17.857  17.826
    5ETHO   H2112353   9.375  17.911  17.788
    5ETHO   H2312354   9.210  17.939  17.824
    6ETHO    O112355   9.231  17.765  17.735
    6ETHO    C112356   9.205  17.826  17.613
    6ETHO   H1112357   9.129  17.906  17.628
    6ETHO   H1312358   9.293  17.880  17.571
    6ETHO    C212359   9.141  17.718  17.524
    6ETHO   H2112360   9.086  17.778  17.448
    6ETHO   H2312361   9.068  17.663  17.588
    7ETHO    O112362   9.237  17.631  17.465
    7ETHO    C112363   9.168  17.536  17.384
    7ETHO   H1112364   9.096  17.596  17.323
    7ETHO   H1312365   9.243  17.503  17.310
    7ETHO    C212366   9.111  17.412  17.457
    7ETHO   H2112367   9.183  17.385  17.536
    7ETHO   H2312368   9.093  17.337  17.377
    8ETHO    O112369   8.991  17.427  17.527
    8ETHO    C112370   8.905  17.317  17.533
    8ETHO   H1112371   8.966  17.238  17.582
    8ETHO   H1312372   8.864  17.272  17.440
    8ETHO    C212373   8.792  17.356  17.627
    8ETHO   H2112374   8.830  17.401  17.722
    8ETHO   H2312375   8.751  17.258  17.661
    9ETHO    O112376   8.700  17.443  17.569
    9ETHO    C112377   8.569  17.399  17.581
    9ETHO   H1112378   8.552  17.329  17.497
    9ETHO   H1312379   8.550  17.339  17.672
    9ETHO    C212380   8.463  17.514  17.574
    9ETHO   H2112381   8.359  17.481  17.555
    9ETHO   H2312382   8.490  17.585  17.493
   10ETHO    O112383   8.469  17.582  17.699
   10ETHO    C112384   8.341  17.638  17.719
   10ETHO   H1112385   8.259  17.563  17.713
   10ETHO   H1312386   8.321  17.716  17.642
   10ETHO    C212387   8.331  17.719  17.851
   10ETHO   H2112388   8.271  17.812  17.839
   10ETHO   H2312389   8.439  17.743  17.865
   11ETHO    O112390   8.297  17.653  17.962
   11ETHO    C112391   8.242  17.751  18.051
   11ETHO   H1112392   8.316  17.833  18.042
   11ETHO   H1312393   8.144  17.789  18.015
   11ETHO    C212394   8.218  17.680  18.188
   11ETHO   H2112395   8.191  17.768  18.251
   11ETHO   H2312396   8.131  17.614  18.169
   12ETHO    O112397   8.328  17.609  18.256
   12ETHO    C112398   8.446  17.678  18.247
   12ETHO   H1112399   8.430  17.783  18.281
   12ETHO   H1312400   8.485  17.668  18.144
   12ETHO    C212401   8.559  17.627  18.334
   12ETHO   H2112402   8.523  17.625  18.439
   12ETHO   H2312403   8.650  17.690  18.326
   13ETHO    O112404   8.584  17.492  18.300
   13ETHO    C112405   8.662  17.420  18.389
   13ETHO   H1112406   8.704  17.345  18.318
   13ETHO   H1312407   8.749  17.483  18.417
   13ETHO    C212408   8.609  17.354  18.518
   13ETHO   H2112409   8.556  17.425  18.584
   13ETHO   H2312410   8.693  17.306  18.573
   14ETHO    O112411   8.520  17.251  18.485
   14ETHO    C112412   8.472  17.196  18.603
   14ETHO   H1112413   8.430  17.272  18.673
   14ETHO   H1312414   8.558  17.149  18.656
   14ETHO    C212415   8.355  17.101  18.571
   14ETHO   H2112416   8.277  17.150  18.509
   14ETHO   H2312417   8.316  17.067  18.669
   15ETHO    O112418   8.407  16.986  18.502
   15ETHO    C112419   8.309  16.909  18.436
   15ETHO   H1112420   8.234  16.870  18.509
   15ETHO   H1312421   8.253  16.971  18.363
   15ETHO    C212422   8.360  16.798  18.342
   15ETHO   H2112423   8.420  16.722  18.396
   15ETHO   H2312424   8.270  16.748  18.301
   16ETHO    O112425   8.452  16.841  18.245
   16ETHO    C112426   8.483  16.738  18.156
   16ETHO   H1112427   8.545  16.662  18.208
   16ETHO   H1312428   8.395  16.686  18.112
   16ETHO    C212429   8.554  16.798  18.032
   16ETHO   H2112430   8.503  16.879  17.975
   16ETHO   H2312431   8.566  16.719  17.954
   17ETHO    O112432   8.688  16.841  18.076
   17ETHO    C112433   8.755  16.909  17.976
   17ETHO   H1112434   8.732  16.851  17.883
   17ETHO   H1312435   8.710  17.011  17.973
   17ETHO    C212436   8.907  16.913  17.994
   17ETHO   H2112437   8.923  16.962  18.092
   17ETHO   H2312438   8.943  16.976  17.911
   18ETHO    O112439   8.970  16.783  18.011
   18ETHO    C112440   9.113  16.788  18.026
   18ETHO   H1112441   9.169  16.833  17.941
   18ETHO   H1312442   9.133  16.853  18.113
   18ETHO    C212443   9.170  16.661  18.072
   18ETHO   H2112444   9.097  16.613  18.141
   18ETHO   H2312445   9.262  16.676  18.131
   19ETHO    O112446   9.197  16.571  17.965
   19ETHO    C112447   9.241  16.447  18.015
   19ETHO   H1112448   9.177  16.417  18.100
   19ETHO   H1312449   9.347  16.458  18.046
   19ETHO    C212450   9.242  16.333  17.919
   19ETHO   H2112451   9.136  16.330  17.887
   19ETHO   H2312452   9.275  16.254  17.989
   20ETHO    O112453   9.333  16.345  17.814
   20ETHO    C112454   9.284  16.309  17.679
   20ETHO   H1112455   9.240  16.208  17.690
   20ETHO   H1312456   9.196  16.375  17.660
   20ETHO    C212457   9.401  16.314  17.589
   20ETHO   H2112458   9.367  16.252  17.504
   20ETHO   H2312459   9.493  16.271  17.635
   21ETHO    O112460   9.429  16.446  17.541
   21ETHO    C112461   9.545  16.443  17.463
   21ETHO   H1112462   9.525  16.380  17.374
   21ETHO   H1312463   9.629  16.403  17.524
   21ETHO    C212464   9.588  16.589  17.414
   21ETHO   H2112465   9.694  16.587  17.383
   21ETHO   H2312466   9.586  16.663  17.496
   22ETHO    O112467   9.514  16.636  17.301
   22ETHO    C112468   9.574  16.594  17.178
   22ETHO   H1112469   9.600  16.487  17.192
   22ETHO   H1312470   9.493  16.605  17.103
   22ETHO    C212471   9.680  16.683  17.137
   22ETHO   H2112472   9.763  16.694  17.210
   22ETHO   H2312473   9.727  16.628  17.053
   23ETHO    O112474   9.630  16.806  17.111
   23ETHO    C112475   9.642  16.895  17.224
   23ETHO   H1112476   9.739  16.895  17.278
   23ETHO   H1312477   9.573  16.867  17.307
   23ETHO    C212478   9.615  17.043  17.190
   23ETHO   H2112479   9.581  17.098  17.280
   23ETHO   H2312480   9.532  17.042  17.116
   24ETHO    O112481   9.732  17.100  17.120
   24ETHO    C112482   9.695  17.219  17.052
   24ETHO   H1112483   9.629  17.197  16.965
   24ETHO   H1312484   9.644  17.283  17.126
   24ETHO    C212485   9.829  17.284  17.004
   24ETHO   H2112486   9.879  17.344  17.083
   24ETHO   H2312487   9.814  17.367  16.932
   25ETHO    O112488   9.918  17.188  16.948
   25ETHO    C112489  10.009  17.249  16.861
   25ETHO   H1112490  10.054  17.343  16.899
   25ETHO   H1312491   9.966  17.270  16.761
   25ETHO    C212492  10.123  17.147  16.832
   25ETHO   H2112493  10.198  17.191  16.764
   25ETHO   H2312494  10.079  17.062  16.775
   26ETHO    O112495  10.169  17.106  16.959
   26ETHO    C112496  10.247  16.985  16.955
   26ETHO   H1112497  10.269  16.942  17.055
   26ETHO   H1312498  10.183  16.912  16.901
   26ETHO    C212499  10.379  16.995  16.876
   26ETHO   H2112500  10.366  17.059  16.786
   26ETHO   H2312501  10.399  16.893  16.836
   27ETHO    O112502  10.484  17.046  16.961
   27ETHO    C112503  10.491  17.187  16.968
   27ETHO   H1112504  10.400  17.226  17.019
   27ETHO   H1312505  10.476  17.231  16.867
   27ETHO    C212506  10.633  17.229  17.015
   27ETHO   H2112507  10.637  17.340  17.005
   27ETHO   H2312508  10.700  17.177  16.943
   28ETHO    O112509  10.647  17.179  17.149
   28ETHO    C112510  10.786  17.178  17.183
   28ETHO   H1112511  10.831  17.113  17.104
   28ETHO   H1312512  10.815  17.285  17.174
   28ETHO    C212513  10.818  17.119  17.321
   28ETHO   H2112514  10.915  17.068  17.302
   28ETHO   H2312515  10.745  17.042  17.352
   29ETHO    O112516  10.821  17.220  17.416
   29ETHO    C112517  10.902  17.203  17.530
   29ETHO   H1112518  10.997  17.259  17.520
   29ETHO   H1312519  10.923  17.096  17.549
   29ETHO    C212520  10.838  17.248  17.670
   29ETHO   H2112521  10.798  17.350  17.656
   29ETHO   H2312522  10.931  17.261  17.730
   30ETHO    O112523  10.752  17.152  17.737
   30ETHO    C112524  10.696  17.208  17.852
   30ETHO   H1112525  10.770  17.272  17.906
   30ETHO   H1312526  10.611  17.273  17.821
   30ETHO    C212527  10.648  17.101  17.951
   30ETHO   H2112528  10.577  17.040  17.891
   30ETHO   H2312529  10.596  17.148  18.038
   31ETHO    O112530  10.747  17.011  18.002
   31ETHO    C112531  10.833  17.061  18.100
   31ETHO   H1112532  10.925  17.094  18.048
   31ETHO   H1312533  10.786  17.150  18.146
   31ETHO    C212534  10.873  16.967  18.215
   31ETHO   H2112535  10.949  17.036  18.258
   31ETHO   H2312536  10.930  16.881  18.176
   32ETHO    O112537  10.765  16.937  18.309
   32ETHO    C112538  10.785  16.815  18.377
   32ETHO   H1112539  10.814  16.739  18.302
   32ETHO   H1312540  10.861  16.818  18.459
   32ETHO    C212541  10.666  16.776  18.459
   32ETHO   H2112542  10.582  16.749  18.392
   32ETHO   H2312543  10.641  16.853  18.536
   33ETHO    O112544  10.697  16.657  18.532
   33ETHO    C112545  10.593  16.609  18.605
   33ETHO   H1112546  10.598  16.646  18.709
   33ETHO   H1312547  10.505  16.647  18.549
   33ETHO    C212548  10.598  16.451  18.611
   33ETHO   H2112549  10.610  16.407  18.510
   33ETHO   H2312550  10.500  16.427  18.658
   34ETHO    O112551  10.696  16.395  18.696
   34ETHO    C112552  10.691  16.251  18.710
   34ETHO   H1112553  10.717  16.199  18.615
   34ETHO   H1312554  10.589  16.211  18.729
   34ETHO    C212555  10.793  16.217  18.821
   34ETHO   H2112556  10.871  16.295  18.811
   34ETHO   H2312557  10.835  16.114  18.812
   35ETHO    O112558  10.724  16.232  18.944
   35ETHO    C112559  10.812  16.227  19.058
   35ETHO   H1112560  10.867  16.131  19.059
   35ETHO   H1312561  10.887  16.308  19.052
   35ETHO    C212562  10.745  16.250  19.196
   35ETHO   H2112563  10.817  16.247  19.281
   35ETHO   H2312564  10.670  16.169  19.204
   36ETHO    O112565  10.686  16.380  19.194
   36ETHO    C112566  10.562  16.383  19.263
   36ETHO   H1112567  10.579  16.395  19.373
   36ETHO   H1312568  10.500  16.294  19.240
   36ETHO    C212569  10.472  16.510  19.231
   36ETHO   H2112570  10.375  16.514  19.284
   36ETHO   H2312571  10.437  16.487  19.128
   37ETHO    O112572  10.530  16.641  19.237
   37ETHO    C112573  10.536  16.685  19.371
   37ETHO   H1112574  10.435  16.693  19.417
   37ETHO   H1312575  10.590  16.613  19.436
   37ETHO    C212576  10.594  16.827  19.388
   37ETHO   H2112577  10.564  16.878  19.482
   37ETHO   H2312578  10.566  16.881  19.295
   38ETHO    O112579  10.734  16.819  19.394
   38ETHO    C112580  10.804  16.944  19.386
   38ETHO   H1112581  10.747  17.008  19.457
   38ETHO   H1312582  10.789  16.978  19.282
   38ETHO    C212583  10.947  16.936  19.413
   38ETHO   H2112584  10.990  17.034  19.385
   38ETHO   H2312585  10.998  16.869  19.340
   39ETHO    O112586  10.959  16.909  19.553
   39ETHO    C112587  11.097  16.930  19.584
   39ETHO   H1112588  11.123  16.853  19.659
   39ETHO   H1312589  11.162  16.900  19.498
   39ETHO    C212590  11.138  17.065  19.653
   39ETHO   H2112591  11.121  17.148  19.581
   39ETHO   H2312592  11.245  17.073  19.684
   40ETHO    O112593  11.053  17.075  19.769
   40ETHO    C112594  11.039  17.208  19.819
   40ETHO   H1112595  11.067  17.288  19.747
   40ETHO   H1312596  11.119  17.206  19.896
   40ETHO    C212597  10.911  17.243  19.891
   40ETHO   H2112598  10.924  17.319  19.971
   40ETHO   H2312599  10.867  17.159  19.949
   41ETHO    O112600  10.812  17.302  19.800
   41ETHO    C112601  10.752  17.203  19.715
   41ETHO   H1112602  10.832  17.149  19.660
   41ETHO   H1312603  10.703  17.128  19.782
   41ETHO    C212604  10.662  17.275  19.612
   41ETHO   H2112605  10.679  17.241  19.507
   41ETHO   H2312606  10.702  17.378  19.616
   42ETHO    O112607  10.524  17.280  19.633
   42ETHO    C112608  10.458  17.152  19.643
   42ETHO   H1112609  10.523  17.080  19.588
   42ETHO   H1312610  10.446  17.127  19.750
   42ETHO    C212611  10.316  17.162  19.579
   42ETHO   H2112612  10.262  17.245  19.630
   42ETHO   H2312613  10.258  17.071  19.603
   43ETHO    O112614  10.321  17.177  19.438
   43ETHO    C112615  10.195  17.196  19.370
   43ETHO   H1112616  10.120  17.123  19.406
   43ETHO   H1312617  10.158  17.299  19.391
   43ETHO    C212618  10.214  17.204  19.219
   43ETHO   H2112619  10.273  17.293  19.186
   43ETHO   H2312620  10.114  17.220  19.173
   44ETHO    O112621  10.271  17.090  19.155
   44ETHO    C112622  10.181  16.974  19.169
   44ETHO   H1112623  10.171  16.946  19.277
   44ETHO   H1312624  10.081  16.995  19.124
   44ETHO    C212625  10.248  16.855  19.097
   44ETHO   H2112626  10.186  16.763  19.110
   44ETHO   H2312627  10.347  16.842  19.145
   45ETHO    O112628  10.258  16.880  18.957
   45ETHO    C112629  10.318  16.773  18.876
   45ETHO   H1112630  10.271  16.676  18.904
   45ETHO   H1312631  10.428  16.761  18.885
   45ETHO    C212632  10.279  16.801  18.728
   45ETHO   H2112633  10.174  16.838  18.732
   45ETHO   H2312634  10.286  16.713  18.660
   46ETHO    O112635  10.353  16.910  18.681
   46ETHO    C112636  10.317  16.954  18.551
   46ETHO   H1112637  10.409  16.992  18.502
   46ETHO   H1312638  10.289  16.866  18.489
   46ETHO    C212639  10.204  17.060  18.539
   46ETHO   H2112640  10.164  17.069  18.436
   46ETHO   H2312641  10.246  17.153  18.583
   47ETHO    O112642  10.085  17.023  18.610
   47ETHO    C112643   9.974  17.116  18.606
   47ETHO   H1112644   9.950  17.135  18.499
   47ETHO   H1312645  10.012  17.208  18.655
   47ETHO    C212646   9.857  17.073  18.692
   47ETHO   H2112647   9.880  17.109  18.794
   47ETHO   H2312648   9.844  16.963  18.698
   48ETHO    O112649   9.744  17.124  18.621
   48ETHO    C112650   9.639  17.183  18.694
   48ETHO   H1112651   9.606  17.116  18.776
   48ETHO   H1312652   9.669  17.278  18.744
   48ETHO    C212653   9.520  17.218  18.595
   48ETHO   H2112654   9.440  17.268  18.654
   48ETHO   H2312655   9.555  17.282  18.511
   49ETHO    O112656   9.461  17.113  18.522
   49ETHO    C112657   9.369  17.154  18.427
   49ETHO   H1112658   9.417  17.236  18.369
   49ETHO   H1312659   9.276  17.193  18.473
   49ETHO    C212660   9.337  17.036  18.337
   49ETHO   H2112661   9.269  17.077  18.260
   49ETHO   H2312662   9.292  16.940  18.369
   50ETHO    O112663   9.462  16.989  18.281
   50ETHO    C112664   9.443  16.952  18.141
   50ETHO   H1112665   9.370  16.868  18.130
   50ETHO   H1312666   9.394  17.036  18.087
   50ETHO    C212667   9.574  16.929  18.062
   50ETHO   H2112668   9.571  16.851  17.983
   50ETHO   H2312669   9.645  16.885  18.136
   51ETHO    O112670   9.622  17.046  17.996
   51ETHO    C112671   9.760  17.024  17.970
   51ETHO   H1112672   9.764  16.938  17.899
   51ETHO   H1312673   9.826  16.996  18.056
   51ETHO    C212674   9.825  17.139  17.897
   51ETHO   H2112675   9.857  17.224  17.961
   51ETHO   H2312676   9.753  17.194  17.832
   52ETHO    O112677   9.940  17.092  17.818
   52ETHO    C112678  10.042  17.043  17.891
   52ETHO   H1112679  10.095  17.131  17.934
   52ETHO   H1312680   9.996  16.976  17.967
   52ETHO    C212681  10.131  16.961  17.797
   52ETHO   H2112682  10.077  16.913  17.712
   52ETHO   H2312683  10.188  16.880  17.847
   53ETHO    O112684  10.239  17.042  17.754
   53ETHO    C112685  10.314  16.981  17.645
   53ETHO   H1112686  10.418  17.021  17.651
   53ETHO   H1312687  10.304  16.870  17.637
   53ETHO    C212688  10.270  17.031  17.504
   53ETHO   H2112689  10.166  17.001  17.480
   53ETHO   H2312690  10.327  16.974  17.427
   54ETHO    O112691  10.296  17.165  17.471
   54ETHO    C112692  10.428  17.165  17.421
   54ETHO   H1112693  10.498  17.128  17.499
   54ETHO   H1312694  10.443  17.106  17.328
   54ETHO    C212695  10.464  17.309  17.390
   54ETHO   H2112696  10.403  17.349  17.306
   54ETHO   H2312697  10.569  17.314  17.353
   55ETHO    O112698  10.468  17.387  17.512
   55ETHO    C112699  10.515  17.514  17.489
   55ETHO   H1112700  10.604  17.514  17.422
   55ETHO   H1312701  10.434  17.568  17.435
   55ETHO    C212702  10.553  17.585  17.623
   55ETHO   H2112703  10.618  17.514  17.678
   55ETHO   H2312704  10.622  17.668  17.596
   56ETHO    O112705  10.449  17.612  17.716
   56ETHO    C112706  10.507  17.635  17.849
   56ETHO   H1112707  10.544  17.739  17.839
   56ETHO   H1312708  10.582  17.554  17.859
   56ETHO    C212709  10.399  17.641  17.956
   56ETHO   H2112710  10.465  17.646  18.045
   56ETHO   H2312711  10.347  17.543  17.950
   57ETHO    O112712  10.302  17.740  17.926
   57ETHO    C112713  10.216  17.771  18.036
   57ETHO   H1112714  10.186  17.676  18.086
   57ETHO   H1312715  10.273  17.837  18.105
   57ETHO    C212716  10.079  17.840  17.989
   57ETHO   H2112717  10.091  17.912  17.905
   57ETHO   H2312718  10.014  17.886  18.067
   58ETHO    O112719  10.010  17.739  17.930
   58ETHO    C112720   9.896  17.788  17.859
   58ETHO   H1112721   9.930  17.846  17.770
   58ETHO   H1312722   9.846  17.857  17.930
   58ETHO    C212723   9.799  17.672  17.816
   58ETHO   H2112724   9.864  17.602  17.760
   58ETHO   H2312725   9.712  17.710  17.758
   59ETHO    O112726   9.757  17.605  17.940
   59ETHO    C112727   9.690  17.491  17.903
   59ETHO   H1112728   9.607  17.526  17.838
   59ETHO   H1312729   9.750  17.415  17.848
   59ETHO    C212730   9.631  17.420  18.025
   59ETHO   H2112731   9.585  17.326  17.989
   59ETHO   H2312732   9.549  17.475  18.077
   60ETHO    O112733   9.742  17.394  18.114
   60ETHO    C112734   9.701  17.318  18.228
   60ETHO   H1112735   9.711  17.208  18.212
   60ETHO   H1312736   9.597  17.343  18.257
   60ETHO    C212737   9.792  17.346  18.355
   60ETHO   H2112738   9.896  17.314  18.336
   60ETHO   H2312739   9.750  17.271  18.425
   61ETHO    O112740   9.785  17.477  18.410
   61ETHO    C112741   9.846  17.484  18.539
   61ETHO   H1112742   9.793  17.410  18.603
   61ETHO   H1312743   9.954  17.463  18.529
   61ETHO    C212744   9.808  17.619  18.600
   61ETHO   H2112745   9.843  17.703  18.535
   61ETHO   H2312746   9.850  17.631  18.702
   62ETHO    O112747   9.667  17.638  18.600
   62ETHO    C112748   9.636  17.776  18.629
   62ETHO   H1112749   9.632  17.835  18.536
   62ETHO   H1312750   9.711  17.817  18.700
   62ETHO    C212751   9.497  17.773  18.675
   62ETHO   H2112752   9.449  17.677  18.647
   62ETHO   H2312753   9.438  17.860  18.640
   63ETHO    O112754   9.491  17.774  18.817
   63ETHO    C112755   9.361  17.806  18.867
   63ETHO   H1112756   9.336  17.912  18.849
   63ETHO   H1312757   9.281  17.754  18.810
   63ETHO    C212758   9.338  17.777  19.017
   63ETHO   H2112759   9.377  17.677  19.047
   63ETHO   H2312760   9.230  17.769  19.039
   64ETHO    O112761   9.408  17.874  19.094
   64ETHO    C112762   9.336  17.999  19.109
   64ETHO   H1112763   9.261  17.979  19.188
   64ETHO   H1312764   9.285  18.033  19.016
   64ETHO    C212765   9.439  18.098  19.167
   64ETHO   H2112766   9.479  18.058  19.262
   64ETHO   H2312767   9.385  18.193  19.190
   65ETHO    O112768   9.535  18.123  19.070
   65ETHO    C112769   9.656  18.189  19.116
   65ETHO   H1112770   9.614  18.266  19.184
   65ETHO   H1312771   9.713  18.119  19.180
   65ETHO    C212772   9.726  18.252  18.991
   65ETHO   H2112773   9.772  18.340  19.041
   65ETHO   H2312774   9.650  18.294  18.922
   66ETHO    O112775   9.843  18.188  18.935
   66ETHO    C112776   9.891  18.265  18.823
   66ETHO   H1112777   9.905  18.368  18.864
   66ETHO   H1312778   9.812  18.281  18.748
   66ETHO    C212779  10.022  18.217  18.754
   66ETHO   H2112780  10.049  18.282  18.668
   66ETHO   H2312781  10.009  18.115  18.711
   67ETHO    O112782  10.130  18.219  18.853
   67ETHO    C112783  10.238  18.138  18.810
   67ETHO   H1112784  10.206  18.035  18.784
   67ETHO   H1312785  10.287  18.183  18.721
   67ETHO    C212786  10.362  18.127  18.910
   67ETHO   H2112787  10.414  18.225  18.906
   67ETHO   H2312788  10.430  18.052  18.864
   68ETHO    O112789  10.330  18.083  19.043
   68ETHO    C112790  10.431  18.123  19.134
   68ETHO   H1112791  10.531  18.085  19.103
   68ETHO   H1312792  10.447  18.233  19.133
   68ETHO    C212793  10.409  18.091  19.281
   68ETHO   H2112794  10.508  18.067  19.325
   68ETHO   H2312795  10.347  18.000  19.300
   69ETHO    O112796  10.347  18.201  19.352
   69ETHO    C112797  10.322  18.156  19.485
   69ETHO   H1112798  10.255  18.067  19.482
   69ETHO   H1312799  10.418  18.117  19.524
   69ETHO    C212800  10.273  18.269  19.568
   69ETHO   H2112801  10.340  18.357  19.558
   69ETHO   H2312802  10.271  18.241  19.676
   70ETHO    O112803  10.138  18.304  19.521
   70ETHO    C112804  10.095  18.426  19.575
   70ETHO   H1112805  10.115  18.433  19.684
   70ETHO   H1312806  10.156  18.507  19.528
   70ETHO    C212807   9.950  18.450  19.536
   70ETHO   H2112808   9.933  18.426  19.429
   70ETHO   H2312809   9.929  18.559  19.542
   71ETHO    O112810   9.864  18.373  19.624
   71ETHO    C112811   9.829  18.441  19.748
   71ETHO   H1112812   9.828  18.552  19.744
   71ETHO   H1312813   9.900  18.406  19.826
   71ETHO    C212814   9.693  18.386  19.795
   71ETHO   H2112815   9.687  18.387  19.906
   71ETHO   H2312816   9.685  18.279  19.766
   72ETHO    O112817   9.573  18.443  19.755
   72ETHO    C112818   9.467  18.369  19.821
   72ETHO   H1112819   9.473  18.259  19.807
   72ETHO   H1312820   9.475  18.387  19.930
   72ETHO    C212821   9.331  18.436  19.785
   72ETHO   H2112822   9.255  18.374  19.837
   72ETHO   H2312823   9.312  18.425  19.676
   73ETHO    O112824   9.320  18.566  19.838
   73ETHO    C112825   9.211  18.631  19.770
   73ETHO   H1112826   9.114  18.583  19.793
   73ETHO   H1312827   9.236  18.622  19.662
   73ETHO    C212828   9.193  18.779  19.804
   73ETHO   H2112829   9.117  18.821  19.735
   73ETHO   H2312830   9.292  18.829  19.798
   74ETHO    O112831   9.158  18.799  19.945
   74ETHO    C112832   9.167  18.931  19.987
   74ETHO   H1112833   9.262  18.981  19.957
   74ETHO   H1312834   9.093  18.986  19.925
   74ETHO    C212835   9.135  18.939  20.141
   74ETHO   H2112836   9.045  18.876  20.159
   74ETHO   H2312837   9.107  19.042  20.170
   75ETHO    O112838   9.244  18.890  20.222
   75ETHO    C112839   9.359  18.981  20.220
   75ETHO   H1112840   9.335  19.066  20.288
   75ETHO   H1312841   9.389  19.019  20.120
   75ETHO    C212842   9.486  18.899  20.269
   75ETHO   H2112843   9.456  18.847  20.363
   75ETHO   H2312844   9.565  18.976  20.280
   76ETHO    O112845   9.521  18.783  20.189
   76ETHO    C112846   9.560  18.817  20.055
   76ETHO   H1112847   9.471  18.833  19.990
   76ETHO   H1312848   9.639  18.895  20.051
   76ETHO    C212849   9.627  18.692  20.000
   76ETHO   H2112850   9.646  18.711  19.892
   76ETHO   H2312851   9.556  18.609  20.022
   77ETHO    O112852   9.752  18.652  20.062
   77ETHO    C112853   9.737  18.579  20.181
   77ETHO   H1112854   9.657  18.503  20.182
   77ETHO   H1312855   9.730  18.649  20.267
   77ETHO    C212856   9.872  18.497  20.186
   77ETHO   H2112857   9.875  18.438  20.092
   77ETHO   H2312858   9.862  18.429  20.273
   78ETHO    O112859   9.979  18.584  20.210
   78ETHO    C112860  10.103  18.525  20.170
   78ETHO   H1112861  10.116  18.421  20.206
   78ETHO   H1312862  10.104  18.512  20.059
   78ETHO    C212863  10.220  18.607  20.223
   78ETHO   H2112864  10.316  18.567  20.184
   78ETHO   H2312865  10.215  18.619  20.334
   79ETHO    O112866  10.208  18.724  20.150
   79ETHO    C112867  10.309  18.822  20.188
   79ETHO   H1112868  10.309  18.850  20.296
   79ETHO   H1312869  10.413  18.794  20.163
   79ETHO    C212870  10.296  18.946  20.098
   79ETHO   H2112871  10.353  19.037  20.126
   79ETHO   H2312872  10.190  18.979  20.088
   80ETHO    O112873  10.351  18.935  19.967
   80ETHO    C112874  10.288  19.031  19.879
   80ETHO   H1112875  10.182  19.000  19.887
   80ETHO   H1312876  10.297  19.133  19.922
   80ETHO    C212877  10.337  19.034  19.734
   80ETHO   H2112878  10.446  19.052  19.718
   80ETHO   H2312879  10.290  19.124  19.689
   81ETHO    O112880  10.283  18.920  19.664
   81ETHO    C112881  10.319  18.929  19.523
   81ETHO   H1112882  10.296  19.027  19.477
   81ETHO   H1312883  10.428  18.911  19.518
   81ETHO    C212884  10.235  18.839  19.428
   81ETHO   H2112885  10.127  18.858  19.446
   81ETHO   H2312886  10.258  18.862  19.322
   82ETHO    O112887  10.259  18.702  19.440
   82ETHO    C112888  10.382  18.664  19.382
   82ETHO   H1112889  10.411  18.575  19.441
   82ETHO   H1312890  10.456  18.742  19.410
   82ETHO    C212891  10.383  18.641  19.229
   82ETHO   H2112892  10.291  18.583  19.206
   82ETHO   H2312893  10.465  18.574  19.195
   83ETHO    O112894  10.384  18.755  19.145
   83ETHO    C112895  10.428  18.729  19.009
   83ETHO   H1112896  10.445  18.833  18.974
   83ETHO   H1312897  10.521  18.668  19.016
   83ETHO    C212898  10.319  18.659  18.919
   83ETHO   H2112899  10.216  18.701  18.917
   83ETHO   H2312900  10.299  18.556  18.953
   84ETHO    O112901  10.370  18.649  18.786
   84ETHO    C112902  10.337  18.528  18.720
   84ETHO   H1112903  10.241  18.490  18.760
   84ETHO   H1312904  10.400  18.440  18.745
   84ETHO    C212905  10.347  18.539  18.564
   84ETHO   H2112906  10.447  18.577  18.535
   84ETHO   H2312907  10.267  18.607  18.526
   85ETHO    O112908  10.330  18.412  18.496
   85ETHO    C112909  10.439  18.375  18.422
   85ETHO   H1112910  10.473  18.453  18.350
   85ETHO   H1312911  10.519  18.345  18.493
   85ETHO    C212912  10.393  18.250  18.334
   85ETHO   H2112913  10.309  18.201  18.387
   85ETHO   H2312914  10.468  18.170  18.314
   86ETHO    O112915  10.339  18.291  18.209
   86ETHO    C112916  10.280  18.190  18.133
   86ETHO   H1112917  10.180  18.177  18.180
   86ETHO   H1312918  10.347  18.103  18.148
   86ETHO    C212919  10.255  18.217  17.978
   86ETHO   H2112920  10.221  18.322  17.964
   86ETHO   H2312921  10.166  18.156  17.952
   87ETHO    O112922  10.360  18.204  17.886
   87ETHO    C112923  10.401  18.070  17.879
   87ETHO   H1112924  10.454  18.056  17.975
   87ETHO   H1312925  10.314  18.001  17.881
   87ETHO    C212926  10.492  18.030  17.761
   87ETHO   H2112927  10.546  17.935  17.777
   87ETHO   H2312928  10.562  18.117  17.759
   88ETHO    O112929  10.426  18.035  17.633
   88ETHO    C112930  10.338  17.925  17.603
   88ETHO   H1112931  10.240  17.956  17.647
   88ETHO   H1312932  10.366  17.843  17.673
   88ETHO    C212933  10.320  17.888  17.456
   88ETHO   H2112934  10.294  17.979  17.398
   88ETHO   H2312935  10.234  17.817  17.452
   89ETHO    O112936  10.429  17.824  17.392
   89ETHO    C112937  10.541  17.913  17.383
   89ETHO   H1112938  10.502  18.016  17.371
   89ETHO   H1312939  10.600  17.896  17.476
   89ETHO    C212940  10.611  17.879  17.250
   89ETHO   H2112941  10.681  17.964  17.233
   89ETHO   H2312942  10.533  17.887  17.172
   90ETHO    O112943  10.665  17.751  17.225
   90ETHO    C112944  10.791  17.725  17.288
   90ETHO   H1112945  10.859  17.812  17.298
   90ETHO   H1312946  10.763  17.712  17.395
   90ETHO    C212947  10.854  17.589  17.230
   90ETHO   H2112948  10.774  17.526  17.185
   90ETHO   H2312949  10.884  17.529  17.318
   91ETHO    O112950  10.966  17.607  17.148
   91ETHO    C112951  10.999  17.482  17.089
   91ETHO   H1112952  11.025  17.416  17.174
   91ETHO   H1312953  10.918  17.426  17.038
   91ETHO    C212954  11.111  17.499  16.985
   91ETHO   H2112955  11.150  17.396  16.978
   91ETHO   H2312956  11.188  17.558  17.041
   92ETHO    O112957  11.066  17.553  16.859
   92ETHO    C112958  11.179  17.569  16.777
   92ETHO   H1112959  11.248  17.634  16.835
   92ETHO   H1312960  11.213  17.464  16.763
   92ETHO    C212961  11.157  17.642  16.642
   92ETHO   H2112962  11.254  17.692  16.622
   92ETHO   H2312963  11.077  17.717  16.658
   93ETHO    O112964  11.101  17.559  16.540
   93ETHO    C112965  11.084  17.636  16.421
   93ETHO   H1112966  11.178  17.687  16.392
   93ETHO   H1312967  11.013  17.720  16.436
   93ETHO    C212968  11.041  17.554  16.299
   93ETHO   H2112969  11.009  17.622  16.217
   93ETHO   H2312970  10.965  17.477  16.324
   94ETHO    O112971  11.150  17.482  16.244
   94ETHO    C112972  11.107  17.398  16.140
   94ETHO   H1112973  11.058  17.308  16.180
   94ETHO   H1312974  11.041  17.454  16.070
   94ETHO    C212975  11.237  17.358  16.069
   94ETHO   H2112976  11.294  17.453  16.055
   94ETHO   H2312977  11.204  17.325  15.969
   95ETHO    O112978  11.312  17.265  16.139
   95ETHO    C112979  11.411  17.211  16.050
   95ETHO   H1112980  11.469  17.299  16.016
   95ETHO   H1312981  11.356  17.161  15.968
   95ETHO    C212982  11.500  17.110  16.123
   95ETHO   H2112983  11.554  17.167  16.202
   95ETHO   H2312984  11.568  17.055  16.055
   96ETHO    O112985  11.407  17.024  16.195
   96ETHO    C112986  11.460  16.929  16.285
   96ETHO   H1112987  11.542  16.962  16.352
   96ETHO   H1312988  11.376  16.897  16.351
   96ETHO    C212989  11.498  16.803  16.214
   96ETHO   H2112990  11.565  16.744  16.280
   96ETHO   H2312991  11.550  16.831  16.120
   97ETHO    O112992  11.387  16.725  16.175
   97ETHO    C112993  11.431  16.615  16.096
   97ETHO   H1112994  11.514  16.559  16.146
   97ETHO   H1312995  11.485  16.663  16.012
   97ETHO    C212996  11.324  16.520  16.027
   97ETHO   H2112997  11.377  16.451  15.958
   97ETHO   H2312998  11.257  16.589  15.972
   98ETHO    O112999  11.257  16.440  16.128
   98ETHO    C113000  11.178  16.342  16.069
   98ETHO   H1113001  11.094  16.399  16.024
   98ETHO   H1313002  11.238  16.289  15.992
   98ETHO    C213003  11.120  16.230  16.166
   98ETHO   H2113004  11.016  16.218  16.130
   98ETHO   H2313005  11.111  16.275  16.267
   99ETHO    O113006  11.189  16.104  16.174
   99ETHO    C113007  11.133  16.019  16.273
   99ETHO   H1113008  11.027  15.995  16.249
   99ETHO   H1313009  11.120  16.079  16.366
   99ETHO    C213010  11.218  15.895  16.303
   99ETHO   H2113011  11.179  15.843  16.393
   99ETHO   H2313012  11.317  15.942  16.321
  100ETHO    O113013  11.238  15.806  16.199
  100ETHO    C113014  11.147  15.694  16.201
  100ETHO   H1113015  11.186  15.623  16.276
  100ETHO   H1313016  11.049  15.728  16.243
  100ETHO    C213017  11.126  15.639  16.066
  100ETHO   H2113018  11.079  15.715  15.999
  100ETHO   H2313019  11.061  15.549  16.070
  101PROX    O113020  11.252  15.597  16.011
  101PROX    C113021  11.243  15.567  15.874
  101PROX   H1113022  11.146  15.518  15.849
  101PROX   H1313023  11.246  15.659  15.812
  101PROX    C213024  11.360  15.469  15.840
  101PROX   H2113025  11.334  15.372  15.889
  101PROX    C313026  11.497  15.513  15.870
  101PROX   H3113027  11.522  15.604  15.811
  101PROX   H3213028  11.509  15.527  15.979
  101PROX   H3313029  11.571  15.441  15.827
  102PROX    O113030  11.378  15.457  15.693
  102PROX    C113031  11.259  15.404  15.624
  102PROX   H1113032  11.231  15.309  15.675
  102PROX   H1313033  11.178  15.479  15.625
  102PROX    C213034  11.305  15.366  15.477
  102PROX   H2113035  11.383  15.436  15.440
  102PROX    C313036  11.187  15.373  15.376
  102PROX   H3113037  11.136  15.471  15.389
  102PROX   H3213038  11.208  15.354  15.268
  102PROX   H3313039  11.120  15.290  15.408
  103PROX    O113040  11.347  15.234  15.481
  103PROX    C113041  11.476  15.218  15.539
  103PROX   H1113042  11.552  15.293  15.509
  103PROX   H1313043  11.473  15.233  15.649
  103PROX    C213044  11.534  15.070  15.523
  103PROX   H2113045  11.451  15.011  15.568
  103PROX    C313046  11.669  15.053  15.604
  103PROX   H3113047  11.693  14.945  15.616
  103PROX   H3213048  11.745  15.119  15.558
  103PROX   H3313049  11.651  15.087  15.709
  104PROX    O113050  11.558  15.044  15.383
  104PROX    C113051  11.449  15.029  15.292
  104PROX   H1113052  11.452  14.930  15.242
  104PROX   H1313053  11.358  15.027  15.356
  104PROX    C213054  11.418  15.140  15.185
  104PROX   H2113055  11.400  15.234  15.242
  104PROX    C313056  11.291  15.113  15.104
  104PROX   H3113057  11.216  15.071  15.174
  104PROX   H3213058  11.248  15.202  15.054
  104PROX   H3313059  11.315  15.031  15.032
  105PROX    O113060  11.522  15.157  15.095
  105PROX    C113061  11.643  15.207  15.154
  105PROX   H1113062  11.701  15.139  15.220
  105PROX   H1313063  11.714  15.220  15.069
  105PROX    C213064  11.647  15.356  15.217
  105PROX   H2113065  11.585  15.360  15.308
  105PROX    C313066  11.579  15.440  15.113
  105PROX   H3113067  11.660  15.471  15.045
  105PROX   H3213068  11.490  15.391  15.067
  105PROX   H3313069  11.552  15.531  15.172
  106PROX    O113070  11.779  15.396  15.236
  106PROX    C113071  11.823  15.365  15.371
  106PROX   H1113072  11.736  15.361  15.439
  106PROX   H1313073  11.867  15.263  15.363
  106PROX    C213074  11.920  15.460  15.434
  106PROX   H2113075  12.002  15.491  15.365
  106PROX    C313076  11.983  15.386  15.556
  106PROX   H3113077  11.907  15.349  15.627
  106PROX   H3213078  12.043  15.300  15.520
  106PROX   H3313079  12.048  15.457  15.611
  107PROX    O113080  11.844  15.575  15.476
  107PROX    C113081  11.793  15.658  15.373
  107PROX   H1113082  11.877  15.722  15.338
  107PROX   H1313083  11.766  15.603  15.280
  107PROX    C213084  11.678  15.742  15.437
  107PROX   H2113085  11.714  15.824  15.503
  107PROX    C313086  11.593  15.649  15.515
  107PROX   H3113087  11.641  15.606  15.606
  107PROX   H3213088  11.497  15.696  15.546
  107PROX   H3313089  11.559  15.565  15.450
  108PROX    O113090  11.606  15.799  15.328
  108PROX    C113091  11.556  15.930  15.351
  108PROX   H1113092  11.549  15.947  15.460
  108PROX   H1313093  11.605  16.007  15.287
  108PROX    C213094  11.406  15.940  15.303
  108PROX   H2113095  11.408  15.914  15.195
  108PROX    C313096  11.346  16.077  15.316
  108PROX   H3113097  11.406  16.148  15.254
  108PROX   H3213098  11.252  16.080  15.257
  108PROX   H3313099  11.321  16.113  15.418
  109PROX    O113100  11.324  15.860  15.384
  109PROX    C113101  11.270  15.747  15.317
  109PROX   H1113102  11.331  15.717  15.229
  109PROX   H1313103  11.266  15.667  15.395
  109PROX    C213104  11.121  15.770  15.269
  109PROX   H2113105  11.115  15.872  15.227
  109PROX    C313106  11.020  15.757  15.384
  109PROX   H3113107  10.921  15.772  15.335
  109PROX   H3213108  11.016  15.658  15.434
  109PROX   H3313109  11.037  15.828  15.468
  110PROX    O113110  11.068  15.680  15.167
  110PROX    C113111  11.136  15.702  15.041
  110PROX   H1113112  11.107  15.801  14.999
  110PROX   H1313113  11.248  15.703  15.039
  110PROX    C213114  11.087  15.596  14.920
  110PROX   H2113115  10.978  15.611  14.908
  110PROX    C313116  11.138  15.455  14.946
  110PROX   H3113117  11.248  15.455  14.929
  110PROX   H3213118  11.114  15.410  15.045
  110PROX   H3313119  11.097  15.385  14.870
  111PROX    O113120  11.147  15.629  14.802
  111PROX    C113121  11.085  15.740  14.739
  111PROX   H1113122  11.050  15.702  14.641
  111PROX   H1313123  11.004  15.783  14.801
  111PROX    C213124  11.191  15.846  14.710
  111PROX   H2113125  11.139  15.940  14.679
  111PROX    C313126  11.272  15.810  14.586
  111PROX   H3113127  11.328  15.716  14.611
  111PROX   H3213128  11.202  15.792  14.502
  111PROX   H3313129  11.345  15.886  14.554
  112PROX    O113130  11.266  15.867  14.825
  112PROX    C113131  11.353  15.981  14.817
  112PROX   H1113132  11.398  16.002  14.718
  112PROX   H1313133  11.298  16.072  14.848
  112PROX    C213134  11.472  15.967  14.913
  112PROX   H2113135  11.431  15.921  15.005
  112PROX    C313136  11.529  16.101  14.952
  112PROX   H3113137  11.620  16.092  15.015
  112PROX   H3213138  11.542  16.147  14.852
  112PROX   H3313139  11.451  16.148  15.016
  113PROX    O113140  11.571  15.879  14.857
  113PROX    C113141  11.686  15.862  14.940
  113PROX   H1113142  11.763  15.938  14.915
  113PROX   H1313143  11.650  15.855  15.045
  113PROX    C213144  11.757  15.728  14.888
  113PROX   H2113145  11.689  15.640  14.894
  113PROX    C313146  11.879  15.707  14.992
  113PROX   H3113147  11.838  15.676  15.091
  113PROX   H3213148  11.951  15.631  14.955
  113PROX   H3313149  11.936  15.802  14.999
  114PROX    O113150  11.814  15.748  14.756
  114PROX    C113151  11.727  15.714  14.652
  114PROX   H1113152  11.741  15.608  14.622
  114PROX   H1313153  11.622  15.716  14.688
  114PROX    C213154  11.750  15.808  14.532
  114PROX   H2113155  11.853  15.796  14.490
  114PROX    C313156  11.739  15.949  14.579
  114PROX   H3113157  11.826  15.980  14.640
  114PROX   H3213158  11.729  16.013  14.489
  114PROX   H3313159  11.649  15.972  14.641
  115PROX    O113160  11.646  15.787  14.433
  115PROX    C113161  11.650  15.664  14.363
  115PROX   H1113162  11.756  15.654  14.333
  115PROX   H1313163  11.624  15.586  14.438
  115PROX    C213164  11.558  15.647  14.243
  115PROX   H2113165  11.587  15.717  14.162
  115PROX    C313166  11.411  15.659  14.267
  115PROX   H3113167  11.367  15.617  14.361
  115PROX   H3213168  11.381  15.766  14.281
  115PROX   H3313169  11.346  15.631  14.182
  116PROX    O113170  11.572  15.514  14.184
  116PROX    C113171  11.710  15.464  14.180
  116PROX   H1113172  11.771  15.549  14.143
  116PROX   H1313173  11.753  15.438  14.279
  116PROX    C213174  11.740  15.345  14.091
  116PROX   H2113175  11.700  15.370  13.991
  116PROX    C313176  11.671  15.217  14.145
  116PROX   H3113177  11.661  15.152  14.056
  116PROX   H3213178  11.723  15.167  14.229
  116PROX   H3313179  11.572  15.249  14.184
  117PROX    O113180  11.880  15.323  14.087
  117PROX    C113181  11.951  15.326  14.206
  117PROX   H1113182  11.998  15.426  14.222
  117PROX   H1313183  11.900  15.288  14.297
  117PROX    C213184  12.077  15.234  14.206
  117PROX   H2113185  12.143  15.260  14.121
  117PROX    C313186  12.035  15.088  14.187
  117PROX   H3113187  11.980  15.071  14.092
  117PROX   H3213188  12.125  15.025  14.171
  117PROX   H3313189  11.988  15.049  14.280
  118PROX    O113190  12.158  15.242  14.329
  118PROX    C113191  12.297  15.237  14.301
  118PROX   H1113192  12.359  15.233  14.393
  118PROX   H1313193  12.317  15.142  14.249
  118PROX    C213194  12.355  15.355  14.207
  118PROX   H2113195  12.281  15.434  14.182
  118PROX    C313196  12.433  15.317  14.079
  118PROX   H3113197  12.489  15.403  14.037
  118PROX   H3213198  12.514  15.247  14.109
  118PROX   H3313199  12.359  15.279  14.005
  119PROX    O113200  12.462  15.417  14.287
  119PROX    C113201  12.470  15.558  14.284
  119PROX   H1113202  12.497  15.603  14.187
  119PROX   H1313203  12.373  15.594  14.324
  119PROX    C213204  12.577  15.605  14.384
  119PROX   H2113205  12.679  15.582  14.347
  119PROX    C313206  12.567  15.536  14.521
  119PROX   H3113207  12.571  15.426  14.506
  119PROX   H3213208  12.643  15.566  14.597
  119PROX   H3313209  12.468  15.569  14.557
  120PROX    O113210  12.556  15.749  14.390
  120PROX    C113211  12.646  15.826  14.471
  120PROX   H1113212  12.689  15.769  14.556
  120PROX   H1313213  12.734  15.849  14.408
  120PROX    C213214  12.595  15.960  14.534
  120PROX   H2113215  12.566  16.032  14.454
  120PROX    C313216  12.703  16.009  14.632
  120PROX   H3113217  12.681  16.115  14.660
  120PROX   H3213218  12.697  15.943  14.721
  120PROX   H3313219  12.802  16.013  14.583
  121PROX    O113220  12.475  15.937  14.605
  121PROX    C113221  12.356  15.938  14.522
  121PROX   H1113222  12.335  16.024  14.455
  121PROX   H1313223  12.360  15.845  14.460
  121PROX    C213224  12.237  15.929  14.614
  121PROX   H2113225  12.252  15.839  14.677
  121PROX    C313226  12.107  15.896  14.544
  121PROX   H3113227  12.015  15.897  14.606
  121PROX   H3213228  12.080  15.972  14.469
  121PROX   H3313229  12.120  15.799  14.492
  122PROX    O113230  12.212  16.054  14.678
  122PROX    C113231  12.198  16.038  14.821
  122PROX   H1113232  12.215  15.938  14.864
  122PROX   H1313233  12.247  16.120  14.878
  122PROX    C213234  12.044  16.067  14.845
  122PROX   H2113235  11.990  15.988  14.789
  122PROX    C313236  11.981  16.189  14.773
  122PROX   H3113237  12.016  16.185  14.668
  122PROX   H3213238  11.871  16.177  14.782
  122PROX   H3313239  12.011  16.284  14.822
  123PROX    O113240  12.012  16.043  14.982
  123PROX    C113241  12.058  16.138  15.076
  123PROX   H1113242  12.169  16.137  15.085
  123PROX   H1313243  12.028  16.242  15.050
  123PROX    C213244  12.005  16.095  15.211
  123PROX   H2113245  12.017  15.985  15.204
  123PROX    C313246  11.855  16.142  15.240
  123PROX   H3113247  11.782  16.088  15.177
  123PROX   H3213248  11.835  16.112  15.345
  123PROX   H3313249  11.832  16.251  15.244
  124PROX    O113250  12.085  16.153  15.313
  124PROX    C113251  12.082  16.100  15.445
  124PROX   H1113252  12.038  16.178  15.510
  124PROX   H1313253  12.007  16.024  15.476
  124PROX    C213254  12.221  16.070  15.489
  124PROX   H2113255  12.212  16.024  15.590
  124PROX    C313256  12.308  16.197  15.504
  124PROX   H3113257  12.362  16.223  15.411
  124PROX   H3213258  12.256  16.285  15.547
  124PROX   H3313259  12.391  16.174  15.576
  125PROX    O113260  12.286  15.974  15.407
  125PROX    C113261  12.215  15.846  15.406
  125PROX   H1113262  12.222  15.796  15.505
  125PROX   H1313263  12.109  15.851  15.377
  125PROX    C213264  12.276  15.751  15.298
  125PROX   H2113265  12.386  15.752  15.317
  125PROX    C313266  12.253  15.809  15.160
  125PROX   H3113267  12.262  15.919  15.175
  125PROX   H3213268  12.317  15.763  15.081
  125PROX   H3313269  12.146  15.795  15.137
  126PROX    O113270  12.236  15.615  15.320
  126PROX    C113271  12.317  15.519  15.241
  126PROX   H1113272  12.298  15.537  15.133
  126PROX   H1313273  12.423  15.526  15.276
  126PROX    C213274  12.271  15.375  15.283
  126PROX   H2113275  12.160  15.377  15.295
  126PROX    C313276  12.321  15.320  15.420
  126PROX   H3113277  12.429  15.296  15.426
  126PROX   H3213278  12.282  15.381  15.504
  126PROX   H3313279  12.268  15.222  15.425
  127PROX    O113280  12.294  15.279  15.181
  127PROX    C113281  12.435  15.271  15.148
  127PROX   H1113282  12.465  15.347  15.074
  127PROX   H1313283  12.501  15.288  15.236
  127PROX    C213284  12.477  15.136  15.089
  127PROX   H2113285  12.418  15.119  14.996
  127PROX    C313286  12.432  15.021  15.189
  127PROX   H3113287  12.449  14.916  15.159
  127PROX   H3213288  12.469  15.042  15.292
  127PROX   H3313289  12.323  15.021  15.208
  128PROX    O113290  12.618  15.127  15.058
  128PROX    C113291  12.664  15.207  14.948
  128PROX   H1113292  12.739  15.147  14.891
  128PROX   H1313293  12.575  15.218  14.883
  128PROX    C213294  12.733  15.334  14.975
  128PROX   H2113295  12.680  15.413  15.033
  128PROX    C313296  12.789  15.402  14.850
  128PROX   H3113297  12.830  15.320  14.788
  128PROX   H3213298  12.705  15.453  14.797
  128PROX   H3313299  12.873  15.470  14.876
  129PROX    O113300  12.860  15.297  15.038
  129PROX    C113301  12.891  15.358  15.162
  129PROX   H1113302  12.942  15.457  15.160
  129PROX   H1313303  12.800  15.392  15.216
  129PROX    C213304  12.979  15.289  15.269
  129PROX   H2113305  12.967  15.339  15.368
  129PROX    C313306  13.124  15.286  15.224
  129PROX   H3113307  13.182  15.196  15.253
  129PROX   H3213308  13.138  15.293  15.114
  129PROX   H3313309  13.182  15.374  15.260
  130PROX    O113310  12.938  15.154  15.285
  130PROX    C113311  12.817  15.142  15.352
  130PROX   H1113312  12.803  15.218  15.431
  130PROX   H1313313  12.736  15.164  15.278
  130PROX    C213314  12.795  15.014  15.422
  130PROX   H2113315  12.880  15.011  15.493
  130PROX    C313316  12.790  14.902  15.320
  130PROX   H3113317  12.809  14.802  15.365
  130PROX   H3213318  12.705  14.902  15.248
  130PROX   H3313319  12.880  14.922  15.258
  131PROX    O113320  12.675  15.027  15.490
  131PROX    C113321  12.648  14.946  15.603
  131PROX   H1113322  12.695  14.851  15.569
  131PROX   H1313323  12.697  14.979  15.697
  131PROX    C213324  12.496  14.933  15.617
  131PROX   H2113325  12.448  14.902  15.522
  131PROX    C313326  12.432  15.070  15.649
  131PROX   H3113327  12.346  15.086  15.581
  131PROX   H3213328  12.394  15.082  15.752
  131PROX   H3313329  12.510  15.148  15.633
  132PROX    O113330  12.465  14.833  15.716
  132PROX    C113331  12.328  14.791  15.719
  132PROX   H1113332  12.330  14.712  15.798
  132PROX   H1313333  12.260  14.873  15.751
  132PROX    C213334  12.272  14.733  15.580
  132PROX   H2113335  12.265  14.817  15.508
  132PROX    C313336  12.130  14.678  15.595
  132PROX   H3113337  12.079  14.662  15.497
  132PROX   H3213338  12.136  14.577  15.642
  132PROX   H3313339  12.073  14.740  15.667
  133PROX    O113340  12.356  14.622  15.531
  133PROX    C113341  12.346  14.603  15.392
  133PROX   H1113342  12.247  14.566  15.358
  133PROX   H1313343  12.363  14.697  15.335
  133PROX    C213344  12.434  14.492  15.339
  133PROX   H2113345  12.397  14.396  15.382
  133PROX    C313346  12.574  14.514  15.381
  133PROX   H3113347  12.613  14.601  15.324
  133PROX   H3213348  12.561  14.549  15.485
  133PROX   H3313349  12.637  14.423  15.382
  134PROX    O113350  12.423  14.496  15.199
  134PROX    C113351  12.481  14.390  15.123
  134PROX   H1113352  12.591  14.381  15.133
  134PROX   H1313353  12.426  14.298  15.155
  134PROX    C213354  12.461  14.424  14.978
  134PROX   H2113355  12.362  14.469  14.957
  134PROX    C313356  12.445  14.301  14.887
  134PROX   H3113357  12.380  14.232  14.945
  134PROX   H3213358  12.405  14.333  14.788
  134PROX   H3313359  12.540  14.250  14.861
  135PROX    O113360  12.559  14.523  14.946
  135PROX    C113361  12.539  14.594  14.819
  135PROX   H1113362  12.643  14.598  14.782
  135PROX   H1313363  12.479  14.539  14.743
  135PROX    C213364  12.495  14.742  14.851
  135PROX   H2113365  12.579  14.789  14.905
  135PROX    C313366  12.364  14.750  14.930
  135PROX   H3113367  12.328  14.853  14.952
  135PROX   H3213368  12.288  14.691  14.874
  135PROX   H3313369  12.378  14.699  15.027
  136PROX    O113370  12.466  14.804  14.732
  136PROX    C113371  12.529  14.929  14.737
  136PROX   H1113372  12.499  14.994  14.821
  136PROX   H1313373  12.639  14.913  14.750
  136PROX    C213374  12.511  15.004  14.603
  136PROX   H2113375  12.575  14.941  14.536
  136PROX    C313376  12.584  15.139  14.603
  136PROX   H3113377  12.693  15.141  14.622
  136PROX   H3213378  12.566  15.178  14.500
  136PROX   H3313379  12.530  15.210  14.670
  137PROX    O113380  12.374  14.997  14.558
  137PROX    C113381  12.280  15.079  14.637
  137PROX   H1113382  12.322  15.106  14.736
  137PROX   H1313383  12.278  15.175  14.581
  137PROX    C213384  12.140  15.014  14.655
  137PROX   H2113385  12.163  14.925  14.717
  137PROX    C313386  12.074  14.985  14.527
  137PROX   H3113387  11.984  14.920  14.538
  137PROX   H3213388  12.025  15.075  14.485
  137PROX   H3313389  12.142  14.941  14.452
  138PROX    O113390  12.063  15.105  14.729
  138PROX    C113391  12.078  15.115  14.865
  138PROX   H1113392  12.096  15.009  14.894
  138PROX   H1313393  12.172  15.172  14.883
  138PROX    C213394  11.965  15.190  14.951
  138PROX   H2113395  11.870  15.193  14.894
  138PROX    C313396  11.995  15.342  14.976
  138PROX   H3113397  12.049  15.399  14.896
  138PROX   H3213398  11.896  15.390  14.992
  138PROX   H3313399  12.051  15.361  15.070
  139PROX    O113400  11.931  15.128  15.071
  139PROX    C113401  12.041  15.090  15.158
  139PROX   H1113402  12.123  15.042  15.101
  139PROX   H1313403  12.057  15.188  15.206
  139PROX    C213404  11.982  14.986  15.252
  139PROX   H2113405  11.876  15.009  15.280
  139PROX    C313406  12.079  14.971  15.376
  139PROX   H3113407  12.085  15.063  15.437
  139PROX   H3213408  12.041  14.893  15.446
  139PROX   H3313409  12.184  14.953  15.347
  140PROX    O113410  11.973  14.860  15.178
  140PROX    C113411  11.889  14.754  15.235
  140PROX   H1113412  11.918  14.652  15.202
  140PROX   H1313413  11.901  14.751  15.346
  140PROX    C213414  11.738  14.762  15.189
  140PROX   H2113415  11.701  14.859  15.230
  140PROX    C313416  11.659  14.642  15.248
  140PROX   H3113417  11.553  14.661  15.224
  140PROX   H3213418  11.687  14.547  15.197
  140PROX   H3313419  11.669  14.643  15.359
  141PROX    O113420  11.730  14.751  15.049
  141PROX    C113421  11.669  14.866  14.981
  141PROX   H1113422  11.561  14.880  15.003
  141PROX   H1313423  11.720  14.961  15.007
  141PROX    C213424  11.684  14.857  14.820
  141PROX   H2113425  11.790  14.833  14.798
  141PROX    C313426  11.650  14.987  14.745
  141PROX   H3113427  11.570  15.029  14.809
  141PROX   H3213428  11.737  15.056  14.754
  141PROX   H3313429  11.636  14.974  14.636
  142PROX    O113430  11.607  14.745  14.771
  142PROX    C113431  11.650  14.622  14.821
  142PROX   H1113432  11.760  14.633  14.836
  142PROX   H1313433  11.592  14.604  14.914
  142PROX    C213434  11.622  14.503  14.724
  142PROX   H2113435  11.679  14.519  14.630
  142PROX    C313436  11.479  14.507  14.682
  142PROX   H3113437  11.459  14.437  14.597
  142PROX   H3213438  11.406  14.480  14.761
  142PROX   H3313439  11.444  14.606  14.645
  143PROX    O113440  11.668  14.380  14.775
  143PROX    C113441  11.584  14.327  14.875
  143PROX   H1113442  11.556  14.393  14.960
  143PROX   H1313443  11.489  14.297  14.826
  143PROX    C213444  11.645  14.198  14.942
  143PROX   H2113445  11.693  14.141  14.860
  143PROX    C313446  11.527  14.107  14.979
  143PROX   H3113447  11.471  14.080  14.887
  143PROX   H3213448  11.555  14.017  15.039
  143PROX   H3313449  11.455  14.169  15.036
  144PROX    O113450  11.738  14.219  15.057
  144PROX    C113451  11.868  14.262  15.018
  144PROX   H1113452  11.931  14.178  14.981
  144PROX   H1313453  11.865  14.337  14.936
  144PROX    C213454  11.944  14.331  15.139
  144PROX   H2113455  11.885  14.422  15.166
  144PROX    C313456  12.066  14.403  15.095
  144PROX   H3113457  12.143  14.326  15.070
  144PROX   H3213458  12.053  14.482  15.019
  144PROX   H3313459  12.107  14.455  15.184
  145PROX    O113460  11.959  14.243  15.255
  145PROX    C113461  12.051  14.135  15.223
  145PROX   H1113462  12.003  14.050  15.170
  145PROX   H1313463  12.127  14.158  15.146
  145PROX    C213464  12.138  14.093  15.350
  145PROX   H2113465  12.207  14.176  15.374
  145PROX    C313466  12.227  13.969  15.332
  145PROX   H3113467  12.314  13.974  15.402
  145PROX   H3213468  12.171  13.873  15.329
  145PROX   H3313469  12.273  13.982  15.232
  146PROX    O113470  12.056  14.066  15.462
  146PROX    C113471  11.938  13.986  15.438
  146PROX   H1113472  11.861  14.048  15.387
  146PROX   H1313473  11.968  13.907  15.366
  146PROX    C213474  11.884  13.930  15.578
  146PROX   H2113475  11.871  14.011  15.652
  146PROX    C313476  11.980  13.819  15.634
  146PROX   H3113477  11.995  13.743  15.555
  146PROX   H3213478  12.081  13.858  15.661
  146PROX   H3313479  11.933  13.769  15.721
  147PROX    O113480  11.749  13.878  15.560
  147PROX    C113481  11.730  13.795  15.443
  147PROX   H1113482  11.827  13.752  15.410
  147PROX   H1313483  11.674  13.707  15.481
  147PROX    C213484  11.649  13.856  15.323
  147PROX   H2113485  11.708  13.944  15.289
  147PROX    C313486  11.513  13.918  15.370
  147PROX   H3113487  11.538  14.020  15.404
  147PROX   H3213488  11.456  13.936  15.277
  147PROX   H3313489  11.458  13.857  15.444
  148PROX    O113490  11.629  13.761  15.223
  148PROX    C113491  11.743  13.729  15.147
  148PROX   H1113492  11.809  13.818  15.141
  148PROX   H1313493  11.809  13.654  15.196
  148PROX    C213494  11.705  13.679  15.007
  148PROX   H2113495  11.620  13.742  14.975
  148PROX    C313496  11.668  13.530  14.997
  148PROX   H3113497  11.762  13.481  15.030
  148PROX   H3213498  11.588  13.511  15.071
  148PROX   H3313499  11.658  13.498  14.890
  149PROX    O113500  11.815  13.695  14.929
  149PROX    C113501  11.826  13.829  14.878
  149PROX   H1113502  11.734  13.859  14.824
  149PROX   H1313503  11.835  13.897  14.965
  149PROX    C213504  11.965  13.848  14.790
  149PROX   H2113505  11.956  13.796  14.693
  149PROX    C313506  12.083  13.800  14.878
  149PROX   H3113507  12.182  13.826  14.833
  149PROX   H3213508  12.087  13.836  14.983
  149PROX   H3313509  12.088  13.689  14.875
  150PROX    O113510  11.977  13.986  14.772
  150PROX    C113511  11.926  14.028  14.646
  150PROX   H1113512  11.988  13.996  14.560
  150PROX   H1313513  11.832  13.970  14.627
  150PROX    C213514  11.904  14.182  14.637
  150PROX   H2113515  11.860  14.218  14.732
  150PROX    C313516  11.813  14.217  14.522
  150PROX   H3113517  11.717  14.171  14.555
  150PROX   H3213518  11.795  14.326  14.515
  150PROX   H3313519  11.842  14.174  14.424
  151PROX    O113520  12.022  14.239  14.608
  151PROX    C113521  12.033  14.374  14.648
  151PROX   H1113522  11.943  14.435  14.626
  151PROX   H1313523  12.036  14.375  14.759
  151PROX    C213524  12.166  14.435  14.593
  151PROX   H2113525  12.251  14.368  14.618
  151PROX    C313526  12.182  14.576  14.659
  151PROX   H3113527  12.272  14.629  14.622
  151PROX   H3213528  12.091  14.631  14.625
  151PROX   H3313529  12.195  14.564  14.768
  152PROX    O113530  12.148  14.451  14.453
  152PROX    C113531  12.274  14.495  14.397
  152PROX   H1113532  12.265  14.605  14.380
  152PROX   H1313533  12.359  14.474  14.465
  152PROX    C213534  12.306  14.420  14.265
  152PROX   H2113535  12.284  14.314  14.290
  152PROX    C313536  12.447  14.423  14.222
  152PROX   H3113537  12.488  14.526  14.227
  152PROX   H3213538  12.514  14.359  14.284
  152PROX   H3313539  12.456  14.382  14.120
  153PROX    O113540  12.213  14.468  14.166
  153PROX    C113541  12.225  14.601  14.125
  153PROX   H1113542  12.264  14.672  14.201
  153PROX   H1313543  12.294  14.610  14.039
  153PROX    C213544  12.084  14.652  14.079
  153PROX   H2113545  12.037  14.566  14.026
  153PROX    C313546  12.110  14.777  13.988
  153PROX   H3113547  12.013  14.823  13.960
  153PROX   H3213548  12.164  14.862  14.036
  153PROX   H3313549  12.162  14.756  13.892
  154PROX    O113550  12.010  14.691  14.198
  154PROX    C113551  11.872  14.710  14.174
  154PROX   H1113552  11.865  14.790  14.098
  154PROX   H1313553  11.814  14.626  14.131
  154PROX    C213554  11.810  14.759  14.304
  154PROX   H2113555  11.871  14.843  14.343
  154PROX    C313556  11.808  14.638  14.409
  154PROX   H3113557  11.743  14.556  14.372
  154PROX   H3213558  11.915  14.611  14.420
  154PROX   H3313559  11.780  14.672  14.511
  155PROX    O113560  11.677  14.799  14.267
  155PROX    C113561  11.601  14.895  14.346
  155PROX   H1113562  11.602  14.866  14.453
  155PROX   H1313563  11.638  14.999  14.343
  155PROX    C213564  11.461  14.914  14.292
  155PROX   H2113565  11.461  14.920  14.181
  155PROX    C313566  11.412  15.050  14.341
  155PROX   H3113567  11.317  15.083  14.295
  155PROX   H3213568  11.393  15.032  14.449
  155PROX   H3313569  11.473  15.142  14.330
  156PROX    O113570  11.373  14.820  14.337
  156PROX    C113571  11.383  14.697  14.271
  156PROX   H1113572  11.369  14.715  14.162
  156PROX   H1313573  11.483  14.655  14.293
  156PROX    C213574  11.275  14.612  14.339
  156PROX   H2113575  11.315  14.592  14.441
  156PROX    C313576  11.264  14.486  14.258
  156PROX   H3113577  11.186  14.422  14.306
  156PROX   H3213578  11.223  14.517  14.159
  156PROX   H3313579  11.360  14.433  14.246
  157PROX    O113580  11.145  14.670  14.328
  157PROX    C113581  11.093  14.723  14.455
  157PROX   H1113582  11.174  14.778  14.508
  157PROX   H1313583  11.013  14.799  14.438
  157PROX    C213584  11.040  14.618  14.551
  157PROX   H2113585  11.115  14.538  14.565
  157PROX    C313586  10.914  14.550  14.515
  157PROX   H3113587  10.922  14.478  14.431
  157PROX   H3213588  10.877  14.488  14.599
  157PROX   H3313589  10.846  14.631  14.480
  158PROX    O113590  11.021  14.681  14.680
  158PROX    C113591  11.143  14.675  14.753
  158PROX   H1113592  11.163  14.568  14.770
  158PROX   H1313593  11.221  14.733  14.699
  158PROX    C213594  11.123  14.745  14.888
  158PROX   H2113595  11.065  14.839  14.884
  158PROX    C313596  11.263  14.762  14.947
  158PROX   H3113597  11.306  14.661  14.964
  158PROX   H3213598  11.333  14.822  14.885
  158PROX   H3313599  11.252  14.813  15.046
  159PROX    O113600  11.037  14.661  14.970
  159PROX    C113601  11.011  14.720  15.097
  159PROX   H1113602  11.092  14.778  15.147
  159PROX   H1313603  10.929  14.793  15.082
  159PROX    C213604  10.960  14.602  15.192
  159PROX   H2113605  10.985  14.509  15.138
  159PROX    C313606  10.807  14.601  15.215
  159PROX   H3113607  10.756  14.615  15.117
  159PROX   H3213608  10.768  14.504  15.252
  159PROX   H3313609  10.773  14.682  15.283
  160PROX    O113610  11.025  14.615  15.317
  160PROX    C113611  11.156  14.558  15.311
  160PROX   H1113612  11.155  14.448  15.296
  160PROX   H1313613  11.209  14.600  15.223
  160PROX    C213614  11.241  14.595  15.436
  160PROX   H2113615  11.202  14.557  15.532
  160PROX    C313616  11.259  14.750  15.437
  160PROX   H3113617  11.273  14.787  15.541
  160PROX   H3213618  11.347  14.778  15.375
  160PROX   H3313619  11.170  14.808  15.405
  161PROX    O113620  11.363  14.534  15.417
  161PROX    C113621  11.374  14.412  15.491
  161PROX   H1113622  11.396  14.431  15.599
  161PROX   H1313623  11.285  14.346  15.487
  161PROX    C213624  11.499  14.334  15.442
  161PROX   H2113625  11.576  14.410  15.422
  161PROX    C313626  11.477  14.259  15.316
  161PROX   H3113627  11.448  14.328  15.234
  161PROX   H3213628  11.569  14.213  15.275
  161PROX   H3313629  11.398  14.181  15.327
  162PROX    O113630  11.553  14.251  15.547
  162PROX    C113631  11.694  14.240  15.538
  162PROX   H1113632  11.723  14.143  15.582
  162PROX   H1313633  11.724  14.243  15.431
  162PROX    C213634  11.780  14.342  15.619
  162PROX   H2113635  11.766  14.437  15.563
  162PROX    C313636  11.926  14.304  15.638
  162PROX   H3113637  11.989  14.390  15.671
  162PROX   H3213638  11.933  14.220  15.711
  162PROX   H3313639  11.971  14.271  15.542
  163PROX    O113640  11.710  14.356  15.740
  163PROX    C113641  11.747  14.473  15.816
  163PROX   H1113642  11.740  14.449  15.925
  163PROX   H1313643  11.854  14.501  15.811
  163PROX    C213644  11.670  14.599  15.776
  163PROX   H2113645  11.646  14.597  15.667
  163PROX    C313646  11.751  14.725  15.813
  163PROX   H3113647  11.709  14.813  15.760
  163PROX   H3213648  11.747  14.729  15.924
  163PROX   H3313649  11.859  14.722  15.787
  164PROX    O113650  11.549  14.609  15.853
  164PROX    C113651  11.442  14.672  15.777
  164PROX   H1113652  11.474  14.775  15.751
  164PROX   H1313653  11.424  14.625  15.679
  164PROX    C213654  11.307  14.688  15.852
  164PROX   H2113655  11.343  14.695  15.956
  164PROX    C313656  11.200  14.582  15.819
  164PROX   H3113657  11.134  14.554  15.905
  164PROX   H3213658  11.128  14.612  15.739
  164PROX   H3313659  11.245  14.487  15.782
  165PROX    O113660  11.244  14.805  15.818
  165PROX    C113661  11.147  14.852  15.914
  165PROX   H1113662  11.065  14.777  15.923
  165PROX   H1313663  11.190  14.854  16.016
  165PROX    C213664  11.087  14.983  15.863
  165PROX   H2113665  11.054  14.963  15.759
  165PROX    C313666  11.196  15.102  15.870
  165PROX   H3113667  11.265  15.088  15.784
  165PROX   H3213668  11.150  15.203  15.857
  165PROX   H3313669  11.243  15.095  15.971
  166ETHO    O113670  10.981  15.012  15.955
  166ETHO    C113671  10.863  14.941  15.925
  166ETHO   H1113672  10.866  14.837  15.964
  166ETHO   H1313673  10.846  14.936  15.815
  166ETHO    C213674  10.746  15.033  15.982
  166ETHO   H2113675  10.651  14.975  15.975
  166ETHO   H2313676  10.739  15.130  15.929
  167ETHO    O113677  10.754  15.053  16.122
  167ETHO    C113678  10.639  15.131  16.170
  167ETHO   H1113679  10.634  15.221  16.105
  167ETHO   H1313680  10.540  15.081  16.159
  167ETHO    C213681  10.659  15.193  16.316
  167ETHO   H2113682  10.662  15.113  16.393
  167ETHO   H2313683  10.565  15.249  16.329
  168ETHO    O113684  10.775  15.276  16.310
  168ETHO    C113685  10.809  15.345  16.433
  168ETHO   H1113686  10.833  15.264  16.506
  168ETHO   H1313687  10.714  15.386  16.474
  168ETHO    C213688  10.912  15.453  16.402
  168ETHO   H2113689  10.877  15.517  16.317
  168ETHO   H2313690  11.012  15.413  16.377
  169ETHO    O113691  10.927  15.539  16.516
  169ETHO    C113692  11.006  15.475  16.623
  169ETHO   H1113693  10.957  15.383  16.661
  169ETHO   H1313694  11.100  15.440  16.577
  169ETHO    C213695  11.029  15.576  16.736
  169ETHO   H2113696  11.076  15.521  16.821
  169ETHO   H2313697  10.932  15.618  16.768
  170ETHO    O113698  11.106  15.691  16.704
  170ETHO    C113699  11.247  15.664  16.694
  170ETHO   H1113700  11.285  15.659  16.589
  170ETHO   H1313701  11.272  15.566  16.741
  170ETHO    C213702  11.323  15.783  16.753
  170ETHO   H2113703  11.425  15.746  16.777
  170ETHO   H2313704  11.286  15.812  16.854
  171ETHO    O113705  11.342  15.898  16.668
  171ETHO    C113706  11.393  16.011  16.741
  171ETHO   H1113707  11.315  16.031  16.817
  171ETHO   H1313708  11.481  15.970  16.795
  171ETHO    C213709  11.434  16.132  16.653
  171ETHO   H2113710  11.502  16.103  16.570
  171ETHO   H2313711  11.493  16.207  16.710
  172ETHO    O113712  11.325  16.221  16.608
  172ETHO    C113713  11.377  16.307  16.504
  172ETHO   H1113714  11.386  16.247  16.411
  172ETHO   H1313715  11.474  16.354  16.529
  172ETHO    C213716  11.273  16.418  16.479
  172ETHO   H2113717  11.170  16.377  16.468
  172ETHO   H2313718  11.287  16.451  16.373
  173ETHO    O113719  11.276  16.528  16.576
  173ETHO    C113720  11.192  16.643  16.540
  173ETHO   H1113721  11.216  16.671  16.436
  173ETHO   H1313722  11.085  16.615  16.548
  173ETHO    C213723  11.217  16.777  16.616
  173ETHO   H2113724  11.154  16.854  16.566
  173ETHO   H2313725  11.182  16.773  16.721
  174ETHO    O113726  11.355  16.812  16.610
  174ETHO    C113727  11.362  16.942  16.657
  174ETHO   H1113728  11.313  17.021  16.595
  174ETHO   H1313729  11.305  16.932  16.752
  174ETHO    C213730  11.510  16.986  16.687
  174ETHO   H2113731  11.568  17.023  16.600
  174ETHO   H2313732  11.564  16.893  16.714
  175ETHO    O113733  11.520  17.077  16.793
  175ETHO    C113734  11.657  17.095  16.826
  175ETHO   H1113735  11.721  17.030  16.762
  175ETHO   H1313736  11.682  17.203  16.826
  175ETHO    C213737  11.657  17.041  16.972
  175ETHO   H2113738  11.750  17.003  17.019
  175ETHO   H2313739  11.597  16.947  16.976
  176ETHO    O113740  11.611  17.142  17.068
  176ETHO    C113741  11.610  17.097  17.204
  176ETHO   H1113742  11.518  17.038  17.225
  176ETHO   H1313743  11.693  17.027  17.227
  176ETHO    C213744  11.638  17.199  17.315
  176ETHO   H2113745  11.733  17.246  17.281
  176ETHO   H2313746  11.665  17.134  17.401
  177ETHO    O113747  11.534  17.289  17.329
  177ETHO    C113748  11.583  17.410  17.383
  177ETHO   H1113749  11.653  17.386  17.466
  177ETHO   H1313750  11.505  17.458  17.446
  177ETHO    C213751  11.634  17.514  17.285
  177ETHO   H2113752  11.696  17.476  17.201
  177ETHO   H2313753  11.697  17.588  17.338
  178ETHO    O113754  11.528  17.589  17.226
  178ETHO    C113755  11.582  17.694  17.141
  178ETHO   H1113756  11.628  17.770  17.208
  178ETHO   H1313757  11.655  17.642  17.076
  178ETHO    C213758  11.476  17.774  17.055
  178ETHO   H2113759  11.423  17.693  17.000
  178ETHO   H2313760  11.530  17.849  16.993
  179ETHO    O113761  11.378  17.842  17.140
  179ETHO    C113762  11.258  17.881  17.073
  179ETHO   H1113763  11.216  17.781  17.047
  179ETHO   H1313764  11.297  17.925  16.979
  179ETHO    C213765  11.166  17.986  17.140
  179ETHO   H2113766  11.089  18.020  17.067
  179ETHO   H2313767  11.226  18.074  17.169
  180ETHO    O113768  11.113  17.935  17.260
  180ETHO    C113769  11.049  18.042  17.340
  180ETHO   H1113770  11.127  18.120  17.356
  180ETHO   H1313771  10.963  18.085  17.284
  180ETHO    C213772  11.008  17.988  17.476
  180ETHO   H2113773  10.956  17.890  17.465
  180ETHO   H2313774  10.930  18.050  17.526
  181ETHO    O113775  11.114  17.971  17.574
  181ETHO    C113776  11.064  17.913  17.694
  181ETHO   H1113777  11.000  17.823  17.685
  181ETHO   H1313778  10.988  17.980  17.739
  181ETHO    C213779  11.173  17.903  17.799
  181ETHO   H2113780  11.132  17.905  17.902
  181ETHO   H2313781  11.239  17.993  17.802
  182ETHO    O113782  11.250  17.781  17.774
  182ETHO    C113783  11.335  17.756  17.886
  182ETHO   H1113784  11.366  17.854  17.928
  182ETHO   H1313785  11.274  17.704  17.962
  182ETHO    C213786  11.467  17.678  17.854
  182ETHO   H2113787  11.433  17.580  17.813
  182ETHO   H2313788  11.534  17.682  17.942
  183ETHO    O113789  11.545  17.744  17.763
  183ETHO    C113790  11.649  17.666  17.732
  183ETHO   H1113791  11.612  17.573  17.683
  183ETHO   H1313792  11.702  17.628  17.822
  183ETHO    C213793  11.756  17.742  17.660
  183ETHO   H2113794  11.853  17.687  17.668
  183ETHO   H2313795  11.770  17.843  17.705
  184ETHO    O113796  11.710  17.749  17.527
  184ETHO    C113797  11.796  17.842  17.458
  184ETHO   H1113798  11.731  17.870  17.372
  184ETHO   H1313799  11.810  17.938  17.511
  184ETHO    C213800  11.940  17.793  17.415
  184ETHO   H2113801  12.014  17.781  17.496
  184ETHO   H2313802  11.981  17.878  17.356
  185ETHO    O113803  11.932  17.677  17.334
  185ETHO    C113804  12.051  17.646  17.276
  185ETHO   H1113805  12.085  17.720  17.201
  185ETHO   H1313806  12.122  17.637  17.361
  185ETHO    C213807  12.046  17.511  17.199
  185ETHO   H2113808  12.152  17.484  17.178
  185ETHO   H2313809  11.991  17.525  17.103
  186ETHO    O113810  11.995  17.408  17.278
  186ETHO    C113811  11.969  17.293  17.196
  186ETHO   H1113812  11.928  17.210  17.258
  186ETHO   H1313813  11.902  17.326  17.113
  186ETHO    C213814  12.090  17.220  17.138
  186ETHO   H2113815  12.127  17.156  17.221
  186ETHO   H2313816  12.168  17.285  17.093
  187ETHO    O113817  12.048  17.124  17.044
  187ETHO    C113818  12.153  17.055  16.982
  187ETHO   H1113819  12.188  17.128  16.906
  187ETHO   H1313820  12.236  17.056  17.056
  187ETHO    C213821  12.109  16.923  16.911
  187ETHO   H2113822  12.042  16.881  16.990
  187ETHO   H2313823  12.190  16.849  16.896
  188ETHO    O113824  12.018  16.943  16.790
  188ETHO    C113825  12.102  16.979  16.680
  188ETHO   H1113826  12.165  16.894  16.649
  188ETHO   H1313827  12.169  17.068  16.691
  188ETHO    C213828  12.006  17.005  16.566
  188ETHO   H2113829  12.059  17.045  16.477
  188ETHO   H2313830  11.935  17.090  16.582
  189ETHO    O113831  11.930  16.892  16.516
  189ETHO    C113832  11.876  16.921  16.388
  189ETHO   H1113833  11.803  17.005  16.391
  189ETHO   H1313834  11.961  16.937  16.319
  189ETHO    C213835  11.821  16.794  16.325
  189ETHO   H2113836  11.758  16.821  16.237
  189ETHO   H2313837  11.758  16.748  16.404
  190ETHO    O113838  11.916  16.695  16.287
  190ETHO    C113839  11.994  16.633  16.390
  190ETHO   H1113840  11.926  16.591  16.467
  190ETHO   H1313841  12.057  16.705  16.446
  190ETHO    C213842  12.080  16.526  16.339
  190ETHO   H2113843  12.033  16.478  16.250
  190ETHO   H2313844  12.103  16.443  16.409
  191ETHO    O113845  12.203  16.589  16.303
  191ETHO    C113846  12.269  16.512  16.207
  191ETHO   H1113847  12.284  16.408  16.245
  191ETHO   H1313848  12.202  16.512  16.118
  191ETHO    C213849  12.404  16.568  16.156
  191ETHO   H2113850  12.464  16.491  16.103
  191ETHO   H2313851  12.466  16.606  16.240
  192ETHO    O113852  12.369  16.680  16.071
  192ETHO    C113853  12.479  16.734  15.989
  192ETHO   H1113854  12.557  16.765  16.062
  192ETHO   H1313855  12.442  16.829  15.945
  192ETHO    C213856  12.511  16.642  15.877
  192ETHO   H2113857  12.547  16.541  15.908
  192ETHO   H2313858  12.594  16.687  15.819
  193ETHO    O113859  12.400  16.622  15.788
  193ETHO    C113860  12.448  16.565  15.671
  193ETHO   H1113861  12.522  16.635  15.626
  193ETHO   H1313862  12.500  16.468  15.690
  193ETHO    C213863  12.332  16.557  15.560
  193ETHO   H2113864  12.240  16.502  15.590
  193ETHO   H2313865  12.370  16.497  15.475
  194ETHO    O113866  12.292  16.682  15.501
  194ETHO    C113867  12.229  16.771  15.591
  194ETHO   H1113868  12.198  16.846  15.515
  194ETHO   H1313869  12.297  16.819  15.664
  194ETHO    C213870  12.106  16.712  15.667
  194ETHO   H2113871  12.138  16.669  15.764
  194ETHO   H2313872  12.053  16.633  15.609
  195ETHO    O113873  12.007  16.807  15.705
  195ETHO    C113874  11.928  16.789  15.821
  195ETHO   H1113875  11.872  16.693  15.820
  195ETHO   H1313876  11.991  16.784  15.912
  195ETHO    C213877  11.826  16.904  15.838
  195ETHO   H2113878  11.877  17.001  15.856
  195ETHO   H2313879  11.765  16.877  15.927
  196ETHO    O113880  11.741  16.923  15.725
  196ETHO    C113881  11.615  16.845  15.729
  196ETHO   H1113882  11.556  16.870  15.819
  196ETHO   H1313883  11.558  16.880  15.640
  196ETHO    C213884  11.623  16.689  15.706
  196ETHO   H2113885  11.689  16.655  15.624
  196ETHO   H2313886  11.521  16.657  15.678
  197ETHO    O113887  11.661  16.619  15.822
  197ETHO    C113888  11.661  16.475  15.807
  197ETHO   H1113889  11.555  16.441  15.807
  197ETHO   H1313890  11.689  16.455  15.702
  197ETHO    C213891  11.747  16.387  15.902
  197ETHO   H2113892  11.721  16.282  15.880
  197ETHO   H2313893  11.726  16.405  16.009
  198ETHO    O113894  11.879  16.392  15.865
  198ETHO    C113895  11.953  16.294  15.934
  198ETHO   H1113896  11.952  16.301  16.045
  198ETHO   H1313897  11.917  16.195  15.898
  198ETHO    C213898  12.106  16.294  15.891
  198ETHO   H2113899  12.132  16.401  15.904
  198ETHO   H2313900  12.118  16.259  15.786
  199ETHO    O113901  12.190  16.219  15.981
  199ETHO    C113902  12.322  16.227  15.941
  199ETHO   H1113903  12.346  16.330  15.909
  199ETHO   H1313904  12.334  16.160  15.853
  199ETHO    C213905  12.432  16.175  16.041
  199ETHO   H2113906  12.527  16.183  15.985
  199ETHO   H2313907  12.402  16.072  16.071
  200ETHO    O113908  12.432  16.256  16.158
  200ETHO    C113909  12.511  16.208  16.257
  200ETHO   H1113910  12.543  16.105  16.231
  200ETHO   H1313911  12.605  16.263  16.278
  200ETHO    C213912  12.425  16.188  16.387
  200ETHO   H2113913  12.374  16.283  16.411
  200ETHO   H2313914  12.502  16.170  16.465
  201ETHO    O113915  12.340  16.069  16.395
  201ETHO    C113916  12.215  16.092  16.337
  201ETHO   H1113917  12.224  16.122  16.231
  201ETHO   H1313918  12.164  16.171  16.397
  201ETHO    C213919  12.131  15.965  16.338
  201ETHO   H2113920  12.183  15.884  16.282
  201ETHO   H2313921  12.035  15.990  16.288
  202ETHO    O113922  12.088  15.918  16.460
  202ETHO    C113923  12.027  15.789  16.448
  202ETHO   H1113924  12.094  15.723  16.388
  202ETHO   H1313925  12.037  15.741  16.547
  202ETHO    C213926  11.885  15.790  16.387
  202ETHO   H2113927  11.812  15.851  16.442
  202ETHO   H2313928  11.839  15.690  16.405
  203ETHO    O113929  11.878  15.815  16.250
  203ETHO    C113930  11.746  15.822  16.201
  203ETHO   H1113931  11.692  15.905  16.253
  203ETHO   H1313932  11.683  15.731  16.208
  203ETHO    C213933  11.742  15.867  16.054
  203ETHO   H2113934  11.806  15.797  15.996
  203ETHO   H2313935  11.796  15.964  16.050
  204ETHO    O113936  11.611  15.875  16.001
  204ETHO    C113937  11.522  15.966  16.066
  204ETHO   H1113938  11.426  15.937  16.018
  204ETHO   H1313939  11.495  15.947  16.172
  204ETHO    C213940  11.555  16.109  16.034
  204ETHO   H2113941  11.461  16.158  16.066
  204ETHO   H2313942  11.568  16.117  15.924
  205ETHO    O113943  11.670  16.176  16.092
  205ETHO    C113944  11.637  16.217  16.225
  205ETHO   H1113945  11.579  16.135  16.273
  205ETHO   H1313946  11.570  16.306  16.221
  205ETHO    C213947  11.764  16.252  16.310
  205ETHO   H2113948  11.791  16.356  16.281
  205ETHO   H2313949  11.847  16.183  16.283
  206ETHO    O113950  11.745  16.245  16.450
  206ETHO    C113951  11.870  16.255  16.520
  206ETHO   H1113952  11.957  16.207  16.471
  206ETHO   H1313953  11.894  16.363  16.530
  206ETHO    C213954  11.859  16.214  16.674
  206ETHO   H2113955  11.935  16.279  16.723
  206ETHO   H2313956  11.757  16.242  16.707
  207ETHO    O113957  11.880  16.081  16.719
  207ETHO    C113958  11.774  15.992  16.693
  207ETHO   H1113959  11.747  15.985  16.585
  207ETHO   H1313960  11.682  16.032  16.741
  207ETHO    C213961  11.797  15.848  16.747
  207ETHO   H2113962  11.765  15.854  16.853
  207ETHO   H2313963  11.904  15.819  16.738
  208ETHO    O113964  11.717  15.758  16.667
  208ETHO    C113965  11.718  15.635  16.731
  208ETHO   H1113966  11.823  15.608  16.752
  208ETHO   H1313967  11.669  15.647  16.830
  208ETHO    C213968  11.659  15.536  16.630
  208ETHO   H2113969  11.714  15.541  16.534
  208ETHO   H2313970  11.554  15.567  16.608
  209ETHO    O113971  11.645  15.400  16.669
  209ETHO    C113972  11.772  15.337  16.663
  209ETHO   H1113973  11.845  15.387  16.730
  209ETHO   H1313974  11.806  15.342  16.558
  209ETHO    C213975  11.758  15.191  16.708
  209ETHO   H2113976  11.699  15.197  16.802
  209ETHO   H2313977  11.851  15.132  16.726
  210ETHO    O113978  11.694  15.123  16.598
  210ETHO    C113979  11.683  14.980  16.614
  210ETHO   H1113980  11.783  14.932  16.602
  210ETHO   H1313981  11.641  14.959  16.715
  210ETHO    C213982  11.591  14.931  16.505
  210ETHO   H2113983  11.508  15.003  16.487
  210ETHO   H2313984  11.546  14.833  16.531
  211ETHO    O113985  11.671  14.906  16.383
  211ETHO    C113986  11.604  14.869  16.264
  211ETHO   H1113987  11.670  14.810  16.197
  211ETHO   H1313988  11.519  14.803  16.290
  211ETHO    C213989  11.545  14.990  16.185
  211ETHO   H2113990  11.485  15.052  16.254
  211ETHO   H2313991  11.476  14.956  16.104
  212ETHO    O113992  11.657  15.071  16.134
  212ETHO    C113993  11.620  15.197  16.089
  212ETHO   H1113994  11.644  15.201  15.981
  212ETHO   H1313995  11.510  15.212  16.094
  212ETHO    C213996  11.684  15.297  16.174
  212ETHO   H2113997  11.654  15.278  16.279
  212ETHO   H2313998  11.658  15.401  16.142
  213ETHO    O113999  11.828  15.309  16.165
  213ETHO    C114000  11.877  15.405  16.264
  213ETHO   H1114001  11.846  15.507  16.231
  213ETHO   H1314002  11.828  15.399  16.364
  213ETHO    C214003  12.034  15.410  16.278
  213ETHO   H2114004  12.075  15.307  16.281
  213ETHO   H2314005  12.057  15.464  16.373
  214ETHO    O114006  12.097  15.459  16.158
  214ETHO    C114007  12.223  15.518  16.179
  214ETHO   H1114008  12.279  15.452  16.248
  214ETHO   H1314009  12.201  15.619  16.219
  214ETHO    C214010  12.296  15.531  16.054
  214ETHO   H2114011  12.389  15.591  16.057
  214ETHO   H2314012  12.228  15.582  15.983
  215ETHO    O114013  12.332  15.403  15.999
  215ETHO    C114014  12.447  15.340  16.040
  215ETHO   H1114015  12.435  15.342  16.151
  215ETHO   H1314016  12.442  15.234  16.007
  215ETHO    C214017  12.577  15.414  16.002
  215ETHO   H2114018  12.662  15.365  16.054
  215ETHO   H2314019  12.582  15.524  16.017
  216ETHO    O114020  12.602  15.384  15.864
  216ETHO    C114021  12.735  15.424  15.828
  216ETHO   H1114022  12.817  15.375  15.885
  216ETHO   H1314023  12.738  15.529  15.862
  216ETHO    C214024  12.770  15.402  15.681
  216ETHO   H2114025  12.737  15.304  15.642
  216ETHO   H2314026  12.881  15.406  15.675
  217ETHO    O114027  12.704  15.508  15.605
  217ETHO    C114028  12.718  15.498  15.468
  217ETHO   H1114029  12.825  15.479  15.446
  217ETHO   H1314030  12.652  15.415  15.434
  217ETHO    C214031  12.677  15.627  15.397
  217ETHO   H2114032  12.739  15.711  15.433
  217ETHO   H2314033  12.569  15.625  15.420
  218ETHO    O114034  12.684  15.614  15.258
  218ETHO    C114035  12.708  15.742  15.197
  218ETHO   H1114036  12.804  15.784  15.233
  218ETHO   H1314037  12.620  15.804  15.224
  218ETHO    C214038  12.723  15.726  15.046
  218ETHO   H2114039  12.811  15.661  15.023
  218ETHO   H2314040  12.740  15.824  14.998
  219ETHO    O114041  12.607  15.656  15.001
  219ETHO    C114042  12.583  15.694  14.868
  219ETHO   H1114043  12.592  15.804  14.859
  219ETHO   H1314044  12.663  15.647  14.807
  219ETHO    C214045  12.446  15.651  14.818
  219ETHO   H2114046  12.435  15.695  14.716
  219ETHO   H2314047  12.362  15.681  14.884
  220ETHO    O114048  12.439  15.510  14.789
  220ETHO    C114049  12.310  15.458  14.788
  220ETHO   H1114050  12.258  15.476  14.884
  220ETHO   H1314051  12.328  15.349  14.778
  220ETHO    C214052  12.217  15.499  14.671
  220ETHO   H2114053  12.273  15.494  14.575
  220ETHO   H2314054  12.182  15.602  14.692
  221ETHO    O114055  12.107  15.411  14.673
  221ETHO    C114056  11.997  15.461  14.600
  221ETHO   H1114057  11.987  15.570  14.620
  221ETHO   H1314058  12.028  15.444  14.495
  221ETHO    C214059  11.870  15.385  14.633
  221ETHO   H2114060  11.839  15.412  14.736
  221ETHO   H2314061  11.889  15.278  14.657
  222ETHO    O114062  11.775  15.403  14.529
  222ETHO    C114063  11.671  15.311  14.541
  222ETHO   H1114064  11.607  15.306  14.451
  222ETHO   H1314065  11.708  15.208  14.563
  222ETHO    C214066  11.572  15.342  14.656
  222ETHO   H2114067  11.526  15.443  14.653
  222ETHO   H2314068  11.616  15.337  14.758
  223ETHO    O114069  11.473  15.238  14.659
  223ETHO    C114070  11.369  15.263  14.756
  223ETHO   H1114071  11.420  15.264  14.855
  223ETHO   H1314072  11.323  15.362  14.736
  223ETHO    C214073  11.265  15.150  14.759
  223ETHO   H2114074  11.196  15.165  14.845
  223ETHO   H2314075  11.331  15.062  14.767
  224ETHO    O114076  11.187  15.140  14.641
  224ETHO    C114077  11.102  15.022  14.642
  224ETHO   H1114078  11.093  14.989  14.536
  224ETHO   H1314079  11.148  14.934  14.692
  224ETHO    C214080  10.962  15.047  14.693
  224ETHO   H2114081  10.898  14.957  14.685
  224ETHO   H2314082  10.908  15.128  14.639
  225ETHO    O114083  10.959  15.079  14.832
  225ETHO    C114084  10.836  15.072  14.888
  225ETHO   H1114085  10.825  14.962  14.897
  225ETHO   H1314086  10.768  15.128  14.821
  225ETHO    C214087  10.821  15.126  15.023
  225ETHO   H2114088  10.710  15.128  15.034
  225ETHO   H2314089  10.862  15.229  15.033
  226ETHO    O114090  10.882  15.038  15.111
  226ETHO    C114091  10.829  15.054  15.246
  226ETHO   H1114092  10.802  15.152  15.290
  226ETHO   H1314093  10.729  15.005  15.251
  226ETHO    C214094  10.914  14.975  15.351
  226ETHO   H2114095  11.020  15.003  15.332
  226ETHO   H2314096  10.899  14.866  15.333
  227ETHO    O114097  10.883  15.007  15.491
  227ETHO    C114098  10.936  15.134  15.524
  227ETHO   H1114099  10.934  15.210  15.443
  227ETHO   H1314100  11.046  15.139  15.539
  227ETHO    C214101  10.852  15.199  15.642
  227ETHO   H2114102  10.880  15.132  15.727
  227ETHO   H2314103  10.743  15.177  15.630
  228ETHO    O114104  10.869  15.338  15.667
  228ETHO    C114105  10.803  15.379  15.785
  228ETHO   H1114106  10.708  15.322  15.792
  228ETHO   H1314107  10.875  15.354  15.866
  228ETHO    C214108  10.785  15.530  15.807
  228ETHO   H2114109  10.724  15.587  15.734
  228ETHO   H2314110  10.886  15.576  15.797
  229ETHO    O114111  10.747  15.559  15.940
  229ETHO    C114112  10.719  15.697  15.957
  229ETHO   H1114113  10.691  15.744  15.860
  229ETHO   H1314114  10.813  15.756  15.966
  229ETHO    C214115  10.616  15.729  16.066
  229ETHO   H2114116  10.518  15.678  16.072
  229ETHO   H2314117  10.585  15.832  16.039
  230ETHO    O114118  10.692  15.741  16.185
  230ETHO    C114119  10.611  15.791  16.299
  230ETHO   H1114120  10.590  15.896  16.268
  230ETHO   H1314121  10.514  15.737  16.305
  230ETHO    C214122  10.674  15.776  16.434
  230ETHO   H2114123  10.737  15.685  16.441
  230ETHO   H2314124  10.592  15.759  16.507
  231ETHO    O114125  10.763  15.886  16.465
  231ETHO    C114126  10.795  15.875  16.602
  231ETHO   H1114127  10.845  15.776  16.613
  231ETHO   H1314128  10.701  15.864  16.662
  231ETHO    C214129  10.881  15.988  16.658
  231ETHO   H2114130  10.973  15.993  16.597
  231ETHO   H2314131  10.911  15.967  16.763
  232ETHO    O114132  10.811  16.113  16.649
  232ETHO    C114133  10.896  16.228  16.695
  232ETHO   H1114134  10.901  16.220  16.806
  232ETHO   H1314135  11.001  16.225  16.659
  232ETHO    C214136  10.828  16.356  16.663
  232ETHO   H2114137  10.731  16.330  16.614
  232ETHO   H2314138  10.881  16.404  16.578
  233ETHO    O114139  10.807  16.441  16.775
  233ETHO    C114140  10.926  16.503  16.823
  233ETHO   H1114141  10.950  16.440  16.912
  233ETHO   H1314142  11.005  16.508  16.746
  233ETHO    C214143  10.898  16.647  16.886
  233ETHO   H2114144  10.968  16.656  16.972
  233ETHO   H2314145  10.791  16.657  16.913
  234ETHO    O114146  10.916  16.756  16.795
  234ETHO    C114147  10.879  16.878  16.862
  234ETHO   H1114148  10.769  16.887  16.869
  234ETHO   H1314149  10.924  16.887  16.963
  234ETHO    C214150  10.935  16.997  16.782
  234ETHO   H2114151  11.044  16.984  16.765
  234ETHO   H2314152  10.917  17.087  16.844
  235ETHO    O114153  10.860  17.010  16.666
  235ETHO    C114154  10.914  17.110  16.580
  235ETHO   H1114155  11.024  17.094  16.568
  235ETHO   H1314156  10.863  17.107  16.482
  235ETHO    C214157  10.898  17.257  16.623
  235ETHO   H2114158  10.958  17.316  16.551
  235ETHO   H2314159  10.946  17.279  16.721
  236ETHO    O114160  10.766  17.304  16.617
  236ETHO    C114161  10.751  17.434  16.672
  236ETHO   H1114162  10.835  17.502  16.645
  236ETHO   H1314163  10.764  17.417  16.781
  236ETHO    C214164  10.622  17.504  16.631
  236ETHO   H2114165  10.616  17.494  16.521
  236ETHO   H2314166  10.635  17.608  16.667
  237ETHO    O114167  10.499  17.446  16.691
  237ETHO    C114168  10.373  17.517  16.661
  237ETHO   H1114169  10.391  17.626  16.676
  237ETHO   H1314170  10.343  17.494  16.557
  237ETHO    C214171  10.252  17.470  16.741
  237ETHO   H2114172  10.262  17.365  16.777
  237ETHO   H2314173  10.163  17.491  16.678
  238ETHO    O114174  10.227  17.547  16.857
  238ETHO    C114175  10.332  17.549  16.954
  238ETHO   H1114176  10.417  17.613  16.921
  238ETHO   H1314177  10.379  17.450  16.969
  238ETHO    C214178  10.283  17.603  17.085
  238ETHO   H2114179  10.248  17.706  17.064
  238ETHO   H2314180  10.378  17.626  17.137
  239ETHO    O114181  10.200  17.507  17.144
  239ETHO    C114182  10.162  17.549  17.273
  239ETHO   H1114183  10.234  17.518  17.352
  239ETHO   H1314184  10.162  17.660  17.262
  239ETHO    C214185  10.027  17.489  17.309
  239ETHO   H2114186  10.010  17.383  17.282
  239ETHO   H2314187  10.022  17.486  17.420
  240ETHO    O114188   9.924  17.577  17.268
  240ETHO    C114189   9.791  17.528  17.295
  240ETHO   H1114190   9.777  17.418  17.288
  240ETHO   H1314191   9.728  17.574  17.216
  240ETHO    C214192   9.753  17.572  17.434
  240ETHO   H2114193   9.833  17.549  17.508
  240ETHO   H2314194   9.668  17.506  17.459
  241ETHO    O114195   9.707  17.708  17.446
  241ETHO    C114196   9.569  17.740  17.456
  241ETHO   H1114197   9.512  17.668  17.393
  241ETHO   H1314198   9.535  17.734  17.561
  241ETHO    C214199   9.540  17.884  17.402
  241ETHO   H2114200   9.429  17.889  17.401
  241ETHO   H2314201   9.585  17.903  17.302
  242ETHO    O114202   9.584  17.986  17.491
  242ETHO    C114203   9.720  17.983  17.527
  242ETHO   H1114204   9.785  17.952  17.442
  242ETHO   H1314205   9.739  17.909  17.607
  242ETHO    C214206   9.768  18.113  17.591
  242ETHO   H2114207   9.695  18.142  17.669
  242ETHO   H2314208   9.771  18.195  17.515
  243ETHO    O114209   9.894  18.096  17.652
  243ETHO    C114210   9.935  18.209  17.731
  243ETHO   H1114211  10.043  18.198  17.757
  243ETHO   H1314212   9.930  18.302  17.671
  243ETHO    C214213   9.855  18.234  17.860
  243ETHO   H2114214   9.914  18.302  17.925
  243ETHO   H2314215   9.835  18.140  17.916
  244ETHO    O114216   9.732  18.300  17.837
  244ETHO    C114217   9.654  18.296  17.956
  244ETHO   H1114218   9.715  18.310  18.048
  244ETHO   H1314219   9.604  18.198  17.964
  244ETHO    C214220   9.547  18.411  17.946
  244ETHO   H2114221   9.490  18.397  18.041
  244ETHO   H2314222   9.484  18.412  17.854
  245ETHO    O114223   9.600  18.543  17.949
  245ETHO    C114224   9.661  18.583  18.079
  245ETHO   H1114225   9.584  18.559  18.155
  245ETHO   H1314226   9.743  18.511  18.098
  245ETHO    C214227   9.705  18.739  18.079
  245ETHO   H2114228   9.710  18.776  17.974
  245ETHO   H2314229   9.806  18.751  18.121
  246ETHO    O114230   9.600  18.815  18.141
  246ETHO    C114231   9.603  18.808  18.284
  246ETHO   H1114232   9.664  18.720  18.315
  246ETHO   H1314233   9.497  18.801  18.316
  246ETHO    C214234   9.678  18.916  18.362
  246ETHO   H2114235   9.786  18.914  18.336
  246ETHO   H2314236   9.679  18.884  18.468
  247ETHO    O114237   9.619  19.042  18.345
  247ETHO    C114238   9.650  19.130  18.452
  247ETHO   H1114239   9.644  19.074  18.548
  247ETHO   H1314240   9.759  19.152  18.451
  247ETHO    C214241   9.567  19.264  18.444
  247ETHO   H2114242   9.593  19.335  18.525
  247ETHO   H2314243   9.578  19.302  18.340
  248ETHO    O114244   9.435  19.211  18.461
  248ETHO    C114245   9.336  19.310  18.478
  248ETHO   H1114246   9.313  19.378  18.393
  248ETHO   H1314247   9.247  19.245  18.482
  248ETHO    C214248   9.340  19.390  18.611
  248ETHO   H2114249   9.325  19.322  18.697
  248ETHO   H2314250   9.253  19.460  18.619
  249ETHO    O114251   9.451  19.475  18.630
  249ETHO    C114252   9.441  19.546  18.759
  249ETHO   H1114253   9.345  19.599  18.775
  249ETHO   H1314254   9.469  19.467  18.832
  249ETHO    C214255   9.565  19.634  18.761
  249ETHO   H2114256   9.532  19.733  18.723
  249ETHO   H2314257   9.639  19.591  18.691
  250ETHO    O114258   9.633  19.657  18.883
  250ETHO    C114259   9.554  19.741  18.974
  250ETHO   H1114260   9.566  19.851  18.968
  250ETHO   H1314261   9.450  19.717  18.945
  250ETHO    C214262   9.577  19.698  19.120
  250ETHO   H2114263   9.520  19.770  19.181
  250ETHO   H2314264   9.687  19.703  19.140
  251ETHO    O114265   9.522  19.575  19.144
  251ETHO    C114266   9.558  19.521  19.274
  251ETHO   H1114267   9.498  19.593  19.335
  251ETHO   H1314268   9.663  19.545  19.300
  251ETHO    C214269   9.524  19.377  19.304
  251ETHO   H2114270   9.568  19.352  19.403
  251ETHO   H2314271   9.565  19.304  19.230
  252ETHO    O114272   9.388  19.362  19.314
  252ETHO    C114273   9.358  19.230  19.355
  252ETHO   H1114274   9.444  19.164  19.329
  252ETHO   H1314275   9.351  19.225  19.466
  252ETHO    C214276   9.238  19.175  19.286
  252ETHO   H2114277   9.149  19.240  19.294
  252ETHO   H2314278   9.204  19.077  19.326
  253ETHO    O114279   9.267  19.156  19.150
  253ETHO    C114280   9.158  19.118  19.078
  253ETHO   H1114281   9.073  19.190  19.071
  253ETHO   H1314282   9.114  19.023  19.116
  253ETHO    C214283   9.190  19.097  18.922
  253ETHO   H2114284   9.223  19.196  18.885
  253ETHO   H2314285   9.092  19.060  18.884
  254ETHO    O114286   9.289  18.995  18.898
  254ETHO    C114287   9.309  18.968  18.761
  254ETHO   H1114288   9.223  18.910  18.723
  254ETHO   H1314289   9.317  19.067  18.711
  254ETHO    C214290   9.445  18.903  18.734
  254ETHO   H2114291   9.512  18.943  18.813
  254ETHO   H2314292   9.476  18.933  18.632
  255ETHO    O114293   9.445  18.764  18.749
  255ETHO    C114294   9.377  18.697  18.649
  255ETHO   H1114295   9.395  18.757  18.557
  255ETHO   H1314296   9.266  18.693  18.663
  255ETHO    C214297   9.429  18.551  18.628
  255ETHO   H2114298   9.367  18.491  18.558
  255ETHO   H2314299   9.447  18.493  18.721
  256ETHO    O114300   9.552  18.566  18.563
  256ETHO    C114301   9.617  18.444  18.532
  256ETHO   H1114302   9.626  18.376  18.619
  256ETHO   H1314303   9.553  18.383  18.464
  256ETHO    C214304   9.742  18.462  18.459
  256ETHO   H2114305   9.722  18.524  18.370
  256ETHO   H2314306   9.780  18.363  18.428
  257ETHO    O114307   9.842  18.517  18.543
  257ETHO    C114308   9.978  18.520  18.502
  257ETHO   H1114309  10.010  18.413  18.494
  257ETHO   H1314310  10.039  18.568  18.582
  257ETHO    C214311   9.997  18.596  18.368
  257ETHO   H2114312  10.108  18.605  18.363
  257ETHO   H2314313   9.936  18.689  18.368
  258ETHO    O114314   9.950  18.506  18.262
  258ETHO    C114315  10.046  18.482  18.158
  258ETHO   H1114316  10.136  18.433  18.200
  258ETHO   H1314317   9.992  18.404  18.100
  258ETHO    C214318  10.095  18.600  18.069
  258ETHO   H2114319  10.010  18.668  18.047
  258ETHO   H2314320  10.134  18.562  17.972
  259ETHO    O114321  10.200  18.663  18.139
  259ETHO    C114322  10.222  18.795  18.082
  259ETHO   H1114323  10.215  18.791  17.971
  259ETHO   H1314324  10.146  18.867  18.121
  259ETHO    C214325  10.356  18.846  18.129
  259ETHO   H2114326  10.392  18.932  18.070
  259ETHO   H2314327  10.427  18.761  18.122
  260ETHO    O114328  10.355  18.886  18.267
  260ETHO    C114329  10.482  18.932  18.300
  260ETHO   H1114330  10.557  18.850  18.308
  260ETHO   H1314331  10.501  19.020  18.235
  260ETHO    C214332  10.478  18.989  18.446
  260ETHO   H2114333  10.573  19.040  18.473
  260ETHO   H2314334  10.460  18.908  18.519
  261ETHO    O114335  10.382  19.092  18.460
  261ETHO    C114336  10.372  19.111  18.604
  261ETHO   H1114337  10.474  19.116  18.646
  261ETHO   H1314338  10.320  19.207  18.628
  261ETHO    C214339  10.294  18.997  18.679
  261ETHO   H2114340  10.320  19.015  18.785
  261ETHO   H2314341  10.320  18.893  18.648
  262ETHO    O114342  10.159  19.018  18.649
  262ETHO    C114343  10.076  18.953  18.747
  262ETHO   H1114344  10.128  18.969  18.844
  262ETHO   H1314345  10.079  18.845  18.720
  262ETHO    C214346   9.931  19.013  18.755
  262ETHO   H2114347   9.872  18.958  18.831
  262ETHO   H2314348   9.887  18.999  18.654
  263ETHO    O114349   9.929  19.144  18.814
  263ETHO    C114350   9.801  19.174  18.870
  263ETHO   H1114351   9.804  19.119  18.966
  263ETHO   H1314352   9.711  19.125  18.826
  263ETHO    C214353   9.783  19.325  18.893
  263ETHO   H2114354   9.675  19.335  18.915
  263ETHO   H2314355   9.803  19.392  18.806
  264ETHO    O114356   9.876  19.362  18.996
  264ETHO    C114357   9.878  19.498  19.025
  264ETHO   H1114358   9.777  19.539  19.045
  264ETHO   H1314359   9.919  19.559  18.942
  264ETHO    C214360   9.965  19.528  19.148
  264ETHO   H2114361  10.073  19.512  19.127
  264ETHO   H2314362   9.933  19.454  19.225
  265ETHO    O114363   9.939  19.663  19.191
  265ETHO    C114364   9.965  19.676  19.333
  265ETHO   H1114365   9.864  19.682  19.379
  265ETHO   H1314366  10.017  19.582  19.363
  265ETHO    C214367  10.041  19.805  19.376
  265ETHO   H2114368  10.143  19.788  19.336
  265ETHO   H2314369  10.043  19.806  19.487
  265ETHO    OZ14370   9.980  19.928  19.336
  265ETHO   HZ114371  10.054  19.987  19.350
    1ETHO    O114372   9.509  15.155   6.117
    1ETHO   HO114373   9.472  15.243   6.119
    1ETHO    C114374   9.565  15.140   6.250
    1ETHO   H1114375   9.660  15.197   6.262
    1ETHO   H1314376   9.574  15.030   6.265
    1ETHO    C214377   9.471  15.189   6.365
    1ETHO   H2114378   9.499  15.155   6.468
    1ETHO   H2314379   9.372  15.143   6.345
    2ETHO    O114380   9.458  15.333   6.371
    2ETHO    C114381   9.413  15.382   6.497
    2ETHO   H1114382   9.322  15.328   6.532
    2ETHO   H1314383   9.491  15.372   6.575
    2ETHO    C214384   9.374  15.533   6.490
    2ETHO   H2114385   9.313  15.563   6.578
    2ETHO   H2314386   9.319  15.557   6.396
    3ETHO    O114387   9.498  15.606   6.490
    3ETHO    C114388   9.557  15.626   6.361
    3ETHO   H1114389   9.493  15.698   6.308
    3ETHO   H1314390   9.558  15.526   6.311
    3ETHO    C214391   9.689  15.697   6.388
    3ETHO   H2114392   9.748  15.688   6.294
    3ETHO   H2314393   9.752  15.645   6.463
    4ETHO    O114394   9.672  15.839   6.404
    4ETHO    C114395   9.681  15.875   6.540
    4ETHO   H1114396   9.615  15.812   6.603
    4ETHO   H1314397   9.787  15.864   6.571
    4ETHO    C214398   9.630  16.019   6.568
    4ETHO   H2114399   9.520  16.020   6.552
    4ETHO   H2314400   9.692  16.097   6.520
    5ETHO    O114401   9.654  16.039   6.711
    5ETHO    C114402   9.597  16.149   6.777
    5ETHO   H1114403   9.592  16.244   6.719
    5ETHO   H1314404   9.493  16.111   6.778
    5ETHO    C214405   9.669  16.185   6.902
    5ETHO   H2114406   9.685  16.095   6.965
    5ETHO   H2314407   9.611  16.253   6.968
    6ETHO    O114408   9.792  16.261   6.887
    6ETHO    C114409   9.888  16.204   6.791
    6ETHO   H1114410   9.901  16.095   6.811
    6ETHO   H1314411   9.842  16.209   6.690
    6ETHO    C214412  10.015  16.285   6.802
    6ETHO   H2114413  10.081  16.235   6.728
    6ETHO   H2314414  10.059  16.299   6.903
    7ETHO    O114415   9.993  16.414   6.743
    7ETHO    C114416  10.094  16.452   6.659
    7ETHO   H1114417  10.192  16.431   6.706
    7ETHO   H1314418  10.084  16.380   6.575
    7ETHO    C214419  10.069  16.596   6.621
    7ETHO   H2114420  10.166  16.644   6.594
    7ETHO   H2314421  10.029  16.657   6.705
    8ETHO    O114422   9.980  16.590   6.510
    8ETHO    C114423   9.959  16.713   6.448
    8ETHO   H1114424  10.054  16.770   6.439
    8ETHO   H1314425   9.896  16.771   6.519
    8ETHO    C214426   9.886  16.696   6.311
    8ETHO   H2114427   9.946  16.613   6.269
    8ETHO   H2314428   9.895  16.785   6.245
    9ETHO    O114429   9.754  16.652   6.313
    9ETHO    C114430   9.708  16.584   6.195
    9ETHO   H1114431   9.618  16.631   6.151
    9ETHO   H1314432   9.787  16.610   6.122
    9ETHO    C214433   9.693  16.430   6.198
    9ETHO   H2114434   9.785  16.383   6.239
    9ETHO   H2314435   9.682  16.406   6.091
   10ETHO    O114436   9.575  16.381   6.264
   10ETHO    C114437   9.563  16.237   6.245
   10ETHO   H1114438   9.553  16.184   6.342
   10ETHO   H1314439   9.661  16.211   6.201
   10ETHO    C214440   9.439  16.210   6.153
   10ETHO   H2114441   9.449  16.102   6.129
   10ETHO   H2314442   9.444  16.272   6.060
   11ETHO    O114443   9.316  16.246   6.206
   11ETHO    C114444   9.207  16.186   6.137
   11ETHO   H1114445   9.218  16.183   6.027
   11ETHO   H1314446   9.203  16.076   6.153
   11ETHO    C214447   9.074  16.248   6.172
   11ETHO   H2114448   8.992  16.183   6.136
   11ETHO   H2314449   9.061  16.244   6.283
   12ETHO    O114450   9.054  16.381   6.123
   12ETHO    C114451   8.922  16.428   6.153
   12ETHO   H1114452   8.894  16.414   6.260
   12ETHO   H1314453   8.854  16.371   6.087
   12ETHO    C214454   8.904  16.576   6.131
   12ETHO   H2114455   8.797  16.602   6.150
   12ETHO   H2314456   8.916  16.601   6.024
   13ETHO    O114457   8.979  16.656   6.217
   13ETHO    C114458   8.932  16.788   6.214
   13ETHO   H1114459   9.017  16.859   6.215
   13ETHO   H1314460   8.867  16.805   6.125
   13ETHO    C214461   8.844  16.811   6.351
   13ETHO   H2114462   8.870  16.739   6.432
   13ETHO   H2314463   8.735  16.794   6.338
   14ETHO    O114464   8.859  16.936   6.412
   14ETHO    C114465   8.771  16.951   6.524
   14ETHO   H1114466   8.816  16.907   6.616
   14ETHO   H1314467   8.672  16.901   6.510
   14ETHO    C214468   8.735  17.099   6.547
   14ETHO   H2114469   8.831  17.153   6.560
   14ETHO   H2314470   8.671  17.107   6.637
   15ETHO    O114471   8.657  17.149   6.444
   15ETHO    C114472   8.609  17.280   6.474
   15ETHO   H1114473   8.695  17.331   6.523
   15ETHO   H1314474   8.584  17.339   6.384
   15ETHO    C214475   8.492  17.291   6.572
   15ETHO   H2114476   8.504  17.235   6.667
   15ETHO   H2314477   8.467  17.397   6.594
   16ETHO    O114478   8.382  17.235   6.499
   16ETHO    C114479   8.258  17.258   6.562
   16ETHO   H1114480   8.188  17.184   6.517
   16ETHO   H1314481   8.258  17.238   6.671
   16ETHO    C214482   8.200  17.400   6.525
   16ETHO   H2114483   8.089  17.405   6.536
   16ETHO   H2314484   8.213  17.416   6.416
   17ETHO    O114485   8.260  17.512   6.592
   17ETHO    C114486   8.231  17.514   6.737
   17ETHO   H1114487   8.123  17.535   6.751
   17ETHO   H1314488   8.256  17.417   6.784
   17ETHO    C214489   8.300  17.627   6.805
   17ETHO   H2114490   8.255  17.634   6.907
   17ETHO   H2314491   8.273  17.727   6.766
   18ETHO    O114492   8.429  17.600   6.805
   18ETHO    C114493   8.513  17.680   6.886
   18ETHO   H1114494   8.496  17.787   6.863
   18ETHO   H1314495   8.486  17.668   6.994
   18ETHO    C214496   8.654  17.646   6.862
   18ETHO   H2114497   8.725  17.729   6.883
   18ETHO   H2314498   8.660  17.631   6.752
   19ETHO    O114499   8.694  17.533   6.931
   19ETHO    C114500   8.755  17.569   7.056
   19ETHO   H1114501   8.704  17.658   7.099
   19ETHO   H1314502   8.865  17.579   7.049
   19ETHO    C214503   8.721  17.459   7.153
   19ETHO   H2114504   8.611  17.448   7.168
   19ETHO   H2314505   8.763  17.469   7.255
   20ETHO    O114506   8.775  17.337   7.100
   20ETHO    C114507   8.749  17.233   7.193
   20ETHO   H1114508   8.795  17.261   7.290
   20ETHO   H1314509   8.640  17.225   7.216
   20ETHO    C214510   8.800  17.100   7.148
   20ETHO   H2114511   8.788  17.029   7.233
   20ETHO   H2314512   8.908  17.095   7.121
   21ETHO    O114513   8.718  17.045   7.047
   21ETHO    C114514   8.741  16.905   7.042
   21ETHO   H1114515   8.703  16.854   7.133
   21ETHO   H1314516   8.849  16.887   7.028
   21ETHO    C214517   8.667  16.865   6.916
   21ETHO   H2114518   8.696  16.762   6.886
   21ETHO   H2314519   8.708  16.932   6.839
   22ETHO    O114520   8.524  16.873   6.927
   22ETHO    C114521   8.472  16.755   6.997
   22ETHO   H1114522   8.483  16.667   6.930
   22ETHO   H1314523   8.531  16.732   7.088
   22ETHO    C214524   8.327  16.787   7.050
   22ETHO   H2114525   8.276  16.717   7.120
   22ETHO   H2314526   8.341  16.885   7.100
   23ETHO    O114527   8.236  16.803   6.942
   23ETHO    C114528   8.131  16.905   6.962
   23ETHO   H1114529   8.105  16.948   6.863
   23ETHO   H1314530   8.173  16.990   7.020
   23ETHO    C214531   8.015  16.853   7.045
   23ETHO   H2114532   7.969  16.943   7.093
   23ETHO   H2314533   8.064  16.793   7.124
   24ETHO    O114534   7.927  16.776   6.965
   24ETHO    C114535   7.807  16.750   7.035
   24ETHO   H1114536   7.835  16.716   7.137
   24ETHO   H1314537   7.746  16.843   7.040
   24ETHO    C214538   7.720  16.641   6.974
   24ETHO   H2114539   7.704  16.658   6.865
   24ETHO   H2314540   7.618  16.648   7.018
   25ETHO    O114541   7.772  16.515   6.993
   25ETHO    C114542   7.712  16.408   6.915
   25ETHO   H1114543   7.761  16.412   6.815
   25ETHO   H1314544   7.602  16.419   6.904
   25ETHO    C214545   7.737  16.267   6.983
   25ETHO   H2114546   7.848  16.261   6.996
   25ETHO   H2314547   7.707  16.190   6.910
   26ETHO    O114548   7.681  16.248   7.116
   26ETHO    C114549   7.543  16.216   7.100
   26ETHO   H1114550   7.507  16.209   6.995
   26ETHO   H1314551   7.542  16.115   7.145
   26ETHO    C214552   7.439  16.312   7.169
   26ETHO   H2114553   7.454  16.308   7.279
   26ETHO   H2314554   7.334  16.277   7.154
   27ETHO    O114555   7.455  16.445   7.141
   27ETHO    C114556   7.373  16.491   7.035
   27ETHO   H1114557   7.361  16.415   6.955
   27ETHO   H1314558   7.421  16.572   6.976
   27ETHO    C214559   7.233  16.534   7.081
   27ETHO   H2114560   7.186  16.450   7.136
   27ETHO   H2314561   7.169  16.563   6.996
   28ETHO    O114562   7.251  16.647   7.163
   28ETHO    C114563   7.129  16.706   7.209
   28ETHO   H1114564   7.084  16.748   7.117
   28ETHO   H1314565   7.065  16.630   7.257
   28ETHO    C214566   7.153  16.829   7.294
   28ETHO   H2114567   7.213  16.788   7.377
   28ETHO   H2314568   7.067  16.893   7.326
   29ETHO    O114569   7.239  16.927   7.231
   29ETHO    C114570   7.168  17.042   7.193
   29ETHO   H1114571   7.142  17.097   7.286
   29ETHO   H1314572   7.080  17.008   7.134
   29ETHO    C214573   7.253  17.148   7.114
   29ETHO   H2114574   7.328  17.192   7.184
   29ETHO   H2314575   7.189  17.238   7.098
   30ETHO    O114576   7.319  17.093   6.995
   30ETHO    C114577   7.450  17.137   6.985
   30ETHO   H1114578   7.455  17.248   6.986
   30ETHO   H1314579   7.504  17.106   7.076
   30ETHO    C214580   7.539  17.069   6.881
   30ETHO   H2114581   7.523  16.959   6.887
   30ETHO   H2314582   7.643  17.079   6.917
   31ETHO    O114583   7.533  17.102   6.748
   31ETHO    C114584   7.580  17.229   6.717
   31ETHO   H1114585   7.512  17.300   6.769
   31ETHO   H1314586   7.678  17.229   6.769
   31ETHO    C214587   7.596  17.252   6.571
   31ETHO   H2114588   7.669  17.178   6.531
   31ETHO   H2314589   7.638  17.354   6.560
   32ETHO    O114590   7.474  17.233   6.501
   32ETHO    C114591   7.498  17.227   6.357
   32ETHO   H1114592   7.595  17.276   6.334
   32ETHO   H1314593   7.509  17.121   6.325
   32ETHO    C214594   7.379  17.288   6.279
   32ETHO   H2114595   7.285  17.245   6.318
   32ETHO   H2314596   7.398  17.260   6.173
   33ETHO    O114597   7.395  17.428   6.287
   33ETHO    C114598   7.290  17.505   6.233
   33ETHO   H1114599   7.268  17.464   6.132
   33ETHO   H1314600   7.199  17.498   6.296
   33ETHO    C214601   7.340  17.649   6.208
   33ETHO   H2114602   7.255  17.701   6.161
   33ETHO   H2314603   7.421  17.663   6.133
   34ETHO    O114604   7.368  17.731   6.329
   34ETHO    C114605   7.391  17.869   6.307
   34ETHO   H1114606   7.303  17.911   6.253
   34ETHO   H1314607   7.483  17.887   6.248
   34ETHO    C214608   7.395  17.941   6.443
   34ETHO   H2114609   7.315  17.898   6.507
   34ETHO   H2314610   7.355  18.043   6.426
   35ETHO    O114611   7.524  17.943   6.500
   35ETHO    C114612   7.516  18.022   6.623
   35ETHO   H1114613   7.483  18.124   6.596
   35ETHO   H1314614   7.437  17.985   6.692
   35ETHO    C214615   7.651  18.039   6.691
   35ETHO   H2114616   7.659  18.112   6.775
   35ETHO   H2314617   7.726  18.066   6.613
   36ETHO    O114618   7.681  17.915   6.747
   36ETHO    C114619   7.791  17.928   6.832
   36ETHO   H1114620   7.767  17.976   6.929
   36ETHO   H1314621   7.874  17.977   6.777
   36ETHO    C214622   7.840  17.787   6.873
   36ETHO   H2114623   7.861  17.734   6.777
   36ETHO   H2314624   7.767  17.726   6.930
   37ETHO    O114625   7.965  17.799   6.942
   37ETHO    C114626   7.953  17.778   7.078
   37ETHO   H1114627   7.888  17.858   7.121
   37ETHO   H1314628   7.909  17.676   7.086
   37ETHO    C214629   8.087  17.768   7.151
   37ETHO   H2114630   8.140  17.679   7.109
   37ETHO   H2314631   8.064  17.736   7.255
   38ETHO    O114632   8.170  17.880   7.156
   38ETHO    C114633   8.289  17.843   7.222
   38ETHO   H1114634   8.355  17.778   7.162
   38ETHO   H1314635   8.269  17.789   7.316
   38ETHO    C214636   8.370  17.970   7.260
   38ETHO   H2114637   8.460  17.953   7.324
   38ETHO   H2314638   8.297  18.030   7.317
   39ETHO    O114639   8.414  18.042   7.144
   39ETHO    C114640   8.469  18.169   7.180
   39ETHO   H1114641   8.550  18.162   7.256
   39ETHO   H1314642   8.519  18.200   7.086
   39ETHO    C214643   8.373  18.289   7.215
   39ETHO   H2114644   8.433  18.380   7.235
   39ETHO   H2314645   8.320  18.265   7.310
   40ETHO    O114646   8.281  18.326   7.120
   40ETHO    C114647   8.198  18.436   7.165
   40ETHO   H1114648   8.253  18.524   7.205
   40ETHO   H1314649   8.142  18.393   7.250
   40ETHO    C214650   8.099  18.481   7.058
   40ETHO   H2114651   8.025  18.545   7.111
   40ETHO   H2314652   8.053  18.389   7.016
   41ETHO    O114653   8.163  18.542   6.949
   41ETHO    C114654   8.244  18.453   6.869
   41ETHO   H1114655   8.339  18.439   6.925
   41ETHO   H1314656   8.198  18.352   6.857
   41ETHO    C214657   8.269  18.517   6.734
   41ETHO   H2114658   8.356  18.482   6.675
   41ETHO   H2314659   8.273  18.627   6.745
   42ETHO    O114660   8.159  18.486   6.653
   42ETHO    C114661   8.161  18.556   6.526
   42ETHO   H1114662   8.122  18.658   6.547
   42ETHO   H1314663   8.262  18.560   6.479
   42ETHO    C214664   8.057  18.488   6.433
   42ETHO   H2114665   8.040  18.557   6.348
   42ETHO   H2314666   7.960  18.476   6.485
   43ETHO    O114667   8.115  18.369   6.376
   43ETHO    C114668   8.096  18.359   6.239
   43ETHO   H1114669   8.012  18.422   6.201
   43ETHO   H1314670   8.184  18.388   6.179
   43ETHO    C214671   8.072  18.210   6.201
   43ETHO   H2114672   8.145  18.145   6.254
   43ETHO   H2314673   8.086  18.198   6.092
   44ETHO    O114674   7.951  18.160   6.241
   44ETHO    C114675   7.925  18.020   6.198
   44ETHO   H1114676   7.959  18.006   6.093
   44ETHO   H1314677   8.001  17.962   6.255
   44ETHO    C214678   7.794  17.958   6.229
   44ETHO   H2114679   7.756  17.995   6.327
   44ETHO   H2314680   7.795  17.847   6.223
   45ETHO    O114681   7.691  17.988   6.128
   45ETHO    C114682   7.627  18.115   6.152
   45ETHO   H1114683   7.705  18.193   6.150
   45ETHO   H1314684   7.570  18.107   6.247
   45ETHO    C214685   7.518  18.154   6.058
   45ETHO   H2114686   7.562  18.155   5.956
   45ETHO   H2314687   7.485  18.255   6.091
   46ETHO    O114688   7.411  18.068   6.060
   46ETHO    C114689   7.307  18.113   5.963
   46ETHO   H1114690   7.294  18.224   5.968
   46ETHO   H1314691   7.338  18.082   5.861
   46ETHO    C214692   7.164  18.056   5.997
   46ETHO   H2114693   7.160  17.945   6.008
   46ETHO   H2314694   7.094  18.090   5.918
   47ETHO    O114695   7.129  18.113   6.124
   47ETHO    C114696   6.984  18.100   6.133
   47ETHO   H1114697   6.949  18.014   6.072
   47ETHO   H1314698   6.941  18.191   6.087
   47ETHO    C214699   6.921  18.090   6.279
   47ETHO   H2114700   6.978  18.016   6.337
   47ETHO   H2314701   6.811  18.073   6.278
   48ETHO    O114702   6.937  18.215   6.341
   48ETHO    C114703   6.916  18.205   6.484
   48ETHO   H1114704   6.810  18.177   6.505
   48ETHO   H1314705   6.977  18.129   6.539
   48ETHO    C214706   6.947  18.348   6.531
   48ETHO   H2114707   6.906  18.417   6.454
   48ETHO   H2314708   6.898  18.379   6.626
   49ETHO    O114709   7.095  18.350   6.541
   49ETHO    C114710   7.142  18.478   6.583
   49ETHO   H1114711   7.097  18.506   6.680
   49ETHO   H1314712   7.130  18.563   6.513
   49ETHO    C214713   7.292  18.464   6.617
   49ETHO   H2114714   7.314  18.380   6.686
   49ETHO   H2314715   7.333  18.553   6.668
   50ETHO    O114716   7.371  18.451   6.493
   50ETHO    C114717   7.504  18.426   6.535
   50ETHO   H1114718   7.543  18.518   6.584
   50ETHO   H1314719   7.505  18.344   6.610
   50ETHO    C214720   7.606  18.406   6.419
   50ETHO   H2114721   7.563  18.320   6.363
   50ETHO   H2314722   7.699  18.361   6.460
   51ETHO    O114723   7.620  18.519   6.336
   51ETHO    C114724   7.737  18.515   6.256
   51ETHO   H1114725   7.732  18.418   6.203
   51ETHO   H1314726   7.831  18.514   6.316
   51ETHO    C214727   7.768  18.625   6.156
   51ETHO   H2114728   7.797  18.721   6.203
   51ETHO   H2314729   7.679  18.639   6.091
   52ETHO    O114730   7.877  18.577   6.076
   52ETHO    C114731   7.908  18.676   5.979
   52ETHO   H1114732   7.956  18.616   5.899
   52ETHO   H1314733   7.816  18.725   5.940
   52ETHO    C214734   8.005  18.780   6.030
   52ETHO   H2114735   7.951  18.832   6.113
   52ETHO   H2314736   8.027  18.863   5.959
   53ETHO    O114737   8.128  18.728   6.071
   53ETHO    C114738   8.208  18.678   5.971
   53ETHO   H1114739   8.160  18.584   5.936
   53ETHO   H1314740   8.213  18.738   5.877
   53ETHO    C214741   8.354  18.656   6.018
   53ETHO   H2114742   8.386  18.741   6.081
   53ETHO   H2314743   8.424  18.639   5.933
   54ETHO    O114744   8.354  18.539   6.103
   54ETHO    C114745   8.463  18.549   6.195
   54ETHO   H1114746   8.473  18.653   6.235
   54ETHO   H1314747   8.445  18.474   6.275
   54ETHO    C214748   8.610  18.515   6.144
   54ETHO   H2114749   8.682  18.558   6.217
   54ETHO   H2314750   8.624  18.574   6.051
   55ETHO    O114751   8.642  18.378   6.110
   55ETHO    C114752   8.728  18.321   6.213
   55ETHO   H1114753   8.817  18.387   6.210
   55ETHO   H1314754   8.675  18.333   6.310
   55ETHO    C214755   8.779  18.182   6.169
   55ETHO   H2114756   8.812  18.179   6.063
   55ETHO   H2314757   8.877  18.162   6.216
   56ETHO    O114758   8.688  18.077   6.214
   56ETHO    C114759   8.683  17.972   6.118
   56ETHO   H1114760   8.685  18.025   6.020
   56ETHO   H1314761   8.590  17.915   6.136
   56ETHO    C214762   8.799  17.865   6.116
   56ETHO   H2114763   8.902  17.906   6.113
   56ETHO   H2314764   8.774  17.805   6.026
   57ETHO    O114765   8.791  17.773   6.231
   57ETHO    C114766   8.897  17.686   6.228
   57ETHO   H1114767   8.903  17.641   6.127
   57ETHO   H1314768   8.989  17.749   6.232
   57ETHO    C214769   8.907  17.583   6.336
   57ETHO   H2114770   8.936  17.482   6.302
   57ETHO   H2314771   8.803  17.574   6.373
   58ETHO    O114772   8.992  17.621   6.446
   58ETHO    C114773   8.975  17.525   6.556
   58ETHO   H1114774   9.032  17.430   6.541
   58ETHO   H1314775   8.871  17.497   6.580
   58ETHO    C214776   9.033  17.575   6.686
   58ETHO   H2114777   9.005  17.495   6.759
   58ETHO   H2314778   8.995  17.674   6.719
   59ETHO    O114779   9.176  17.583   6.689
   59ETHO    C114780   9.227  17.605   6.819
   59ETHO   H1114781   9.166  17.686   6.866
   59ETHO   H1314782   9.219  17.521   6.891
   59ETHO    C214783   9.373  17.643   6.805
   59ETHO   H2114784   9.428  17.559   6.757
   59ETHO   H2314785   9.416  17.650   6.908
   60ETHO    O114786   9.395  17.760   6.721
   60ETHO    C114787   9.530  17.814   6.732
   60ETHO   H1114788   9.595  17.744   6.676
   60ETHO   H1314789   9.560  17.806   6.839
   60ETHO    C214790   9.551  17.954   6.683
   60ETHO   H2114791   9.518  17.953   6.577
   60ETHO   H2314792   9.655  17.991   6.671
   61ETHO    O114793   9.479  18.050   6.760
   61ETHO    C114794   9.437  18.164   6.688
   61ETHO   H1114795   9.391  18.126   6.594
   61ETHO   H1314796   9.362  18.220   6.748
   61ETHO    C214797   9.544  18.254   6.642
   61ETHO   H2114798   9.608  18.297   6.723
   61ETHO   H2314799   9.492  18.343   6.601
   62ETHO    O114800   9.624  18.201   6.542
   62ETHO    C114801   9.728  18.296   6.507
   62ETHO   H1114802   9.802  18.246   6.441
   62ETHO   H1314803   9.783  18.327   6.598
   62ETHO    C214804   9.692  18.432   6.440
   62ETHO   H2114805   9.773  18.504   6.463
   62ETHO   H2314806   9.594  18.469   6.478
   63ETHO    O114807   9.683  18.417   6.300
   63ETHO    C114808   9.651  18.541   6.242
   63ETHO   H1114809   9.696  18.625   6.300
   63ETHO   H1314810   9.689  18.550   6.138
   63ETHO    C214811   9.499  18.559   6.245
   63ETHO   H2114812   9.456  18.548   6.347
   63ETHO   H2314813   9.456  18.478   6.183
   64ETHO    O114814   9.475  18.684   6.191
   64ETHO    C114815   9.342  18.699   6.162
   64ETHO   H1114816   9.279  18.705   6.253
   64ETHO   H1314817   9.316  18.607   6.105
   64ETHO    C214818   9.303  18.820   6.074
   64ETHO   H2114819   9.195  18.811   6.050
   64ETHO   H2314820   9.353  18.813   5.974
   65ETHO    O114821   9.326  18.949   6.121
   65ETHO    C114822   9.283  19.048   6.032
   65ETHO   H1114823   9.317  19.036   5.927
   65ETHO   H1314824   9.173  19.041   6.022
   65ETHO    C214825   9.320  19.181   6.095
   65ETHO   H2114826   9.269  19.190   6.194
   65ETHO   H2314827   9.281  19.258   6.026
   66ETHO    O114828   9.458  19.206   6.125
   66ETHO    C114829   9.555  19.215   6.020
   66ETHO   H1114830   9.536  19.301   5.952
   66ETHO   H1314831   9.544  19.121   5.963
   66ETHO    C214832   9.688  19.266   6.090
   66ETHO   H2114833   9.769  19.251   6.016
   66ETHO   H2314834   9.718  19.198   6.172
   67ETHO    O114835   9.685  19.402   6.133
   67ETHO    C114836   9.815  19.444   6.189
   67ETHO   H1114837   9.841  19.392   6.284
   67ETHO   H1314838   9.892  19.423   6.113
   67ETHO    C214839   9.821  19.597   6.221
   67ETHO   H2114840   9.743  19.648   6.160
   67ETHO   H2314841   9.916  19.638   6.181
   68ETHO    O114842   9.813  19.628   6.358
   68ETHO    C114843   9.826  19.769   6.393
   68ETHO   H1114844   9.819  19.773   6.504
   68ETHO   H1314845   9.926  19.813   6.374
   68ETHO    C214846   9.711  19.841   6.322
   68ETHO   H2114847   9.690  19.936   6.375
   68ETHO   H2314848   9.611  19.796   6.336
   69ETHO    O114849   9.746  19.884   6.190
   69ETHO    C114850   9.629  19.887   6.103
   69ETHO   H1114851   9.574  19.791   6.108
   69ETHO   H1314852   9.567  19.969   6.145
   69ETHO    C214853   9.676  19.903   5.953
   69ETHO   H2114854   9.582  19.888   5.896
   69ETHO   H2314855   9.755  19.828   5.934
   70ETHO    O114856   9.721  20.041   5.932
   70ETHO    C114857   9.732  20.084   5.798
   70ETHO   H1114858   9.831  20.132   5.794
   70ETHO   H1314859   9.747  19.994   5.734
   70ETHO    C214860   9.601  20.140   5.728
   70ETHO   H2114861   9.628  20.210   5.646
   70ETHO   H2314862   9.549  20.197   5.807
   71ETHO    O114863   9.512  20.038   5.682
   71ETHO    C114864   9.402  20.095   5.615
   71ETHO   H1114865   9.429  20.175   5.542
   71ETHO   H1314866   9.347  20.148   5.696
   71ETHO    C214867   9.302  19.994   5.565
   71ETHO   H2114868   9.211  20.039   5.519
   71ETHO   H2314869   9.283  19.932   5.655
   72ETHO    O114870   9.367  19.919   5.463
   72ETHO    C114871   9.271  19.837   5.396
   72ETHO   H1114872   9.222  19.782   5.479
   72ETHO   H1314873   9.206  19.908   5.341
   72ETHO    C214874   9.353  19.746   5.307
   72ETHO   H2114875   9.425  19.791   5.236
   72ETHO   H2314876   9.279  19.691   5.245
   73ETHO    O114877   9.407  19.641   5.381
   73ETHO    C114878   9.456  19.536   5.307
   73ETHO   H1114879   9.546  19.575   5.255
   73ETHO   H1314880   9.395  19.491   5.226
   73ETHO    C214881   9.496  19.418   5.392
   73ETHO   H2114882   9.504  19.458   5.495
   73ETHO   H2314883   9.592  19.374   5.357
   74ETHO    O114884   9.397  19.314   5.387
   74ETHO    C114885   9.424  19.208   5.477
   74ETHO   H1114886   9.409  19.110   5.428
   74ETHO   H1314887   9.526  19.220   5.518
   74ETHO    C214888   9.323  19.204   5.591
   74ETHO   H2114889   9.306  19.297   5.649
   74ETHO   H2314890   9.357  19.130   5.666
   75ETHO    O114891   9.188  19.166   5.542
   75ETHO    C114892   9.099  19.177   5.653
   75ETHO   H1114893   9.106  19.281   5.691
   75ETHO   H1314894   9.116  19.095   5.725
   75ETHO    C214895   8.951  19.165   5.609
   75ETHO   H2114896   8.937  19.256   5.547
   75ETHO   H2314897   8.882  19.185   5.693
   76ETHO    O114898   8.912  19.043   5.537
   76ETHO    C114899   8.777  19.040   5.498
   76ETHO   H1114900   8.718  19.021   5.590
   76ETHO   H1314901   8.749  19.140   5.460
   76ETHO    C214902   8.770  18.928   5.400
   76ETHO   H2114903   8.852  18.939   5.326
   76ETHO   H2314904   8.674  18.915   5.346
   77ETHO    O114905   8.809  18.803   5.458
   77ETHO    C114906   8.892  18.724   5.372
   77ETHO   H1114907   8.997  18.762   5.370
   77ETHO   H1314908   8.847  18.731   5.271
   77ETHO    C214909   8.894  18.574   5.418
   77ETHO   H2114910   8.932  18.527   5.325
   77ETHO   H2314911   8.787  18.550   5.438
   78ETHO    O114912   8.973  18.558   5.532
   78ETHO    C114913   8.908  18.477   5.628
   78ETHO   H1114914   8.961  18.487   5.725
   78ETHO   H1314915   8.805  18.516   5.644
   78ETHO    C214916   8.921  18.332   5.580
   78ETHO   H2114917   8.873  18.324   5.480
   78ETHO   H2314918   8.858  18.276   5.652
   79ETHO    O114919   9.042  18.264   5.586
   79ETHO    C114920   9.138  18.306   5.482
   79ETHO   H1114921   9.086  18.333   5.387
   79ETHO   H1314922   9.182  18.402   5.515
   79ETHO    C214923   9.255  18.212   5.454
   79ETHO   H2114924   9.297  18.230   5.353
   79ETHO   H2314925   9.205  18.113   5.452
   80ETHO    O114926   9.359  18.223   5.553
   80ETHO    C114927   9.455  18.115   5.544
   80ETHO   H1114928   9.396  18.023   5.561
   80ETHO   H1314929   9.501  18.096   5.444
   80ETHO    C214930   9.566  18.127   5.654
   80ETHO   H2114931   9.620  18.214   5.611
   80ETHO   H2314932   9.633  18.039   5.659
   81ETHO    O114933   9.524  18.142   5.789
   81ETHO    C114934   9.625  18.203   5.869
   81ETHO   H1114935   9.716  18.139   5.870
   81ETHO   H1314936   9.648  18.301   5.821
   81ETHO    C214937   9.595  18.240   6.011
   81ETHO   H2114938   9.674  18.289   6.073
   81ETHO   H2314939   9.507  18.307   6.014
   82ETHO    O114940   9.575  18.114   6.076
   82ETHO    C114941   9.539  18.129   6.211
   82ETHO   H1114942   9.451  18.196   6.212
   82ETHO   H1314943   9.627  18.175   6.262
   82ETHO    C214944   9.502  18.000   6.284
   82ETHO   H2114945   9.429  17.946   6.220
   82ETHO   H2314946   9.454  18.025   6.381
   83ETHO    O114947   9.620  17.921   6.311
   83ETHO    C114948   9.594  17.796   6.363
   83ETHO   H1114949   9.532  17.792   6.455
   83ETHO   H1314950   9.545  17.732   6.287
   83ETHO    C214951   9.728  17.741   6.418
   83ETHO   H2114952   9.729  17.790   6.518
   83ETHO   H2314953   9.809  17.780   6.353
   84ETHO    O114954   9.713  17.595   6.424
   84ETHO    C114955   9.802  17.536   6.512
   84ETHO   H1114956   9.820  17.607   6.595
   84ETHO   H1314957   9.893  17.530   6.449
   84ETHO    C214958   9.736  17.409   6.563
   84ETHO   H2114959   9.736  17.323   6.493
   84ETHO   H2314960   9.627  17.433   6.568
   85ETHO    O114961   9.778  17.358   6.692
   85ETHO    C114962   9.702  17.248   6.736
   85ETHO   H1114963   9.592  17.244   6.723
   85ETHO   H1314964   9.742  17.160   6.682
   85ETHO    C214965   9.737  17.219   6.885
   85ETHO   H2114966   9.847  17.224   6.899
   85ETHO   H2314967   9.709  17.113   6.902
   86ETHO    O114968   9.677  17.298   6.982
   86ETHO    C114969   9.733  17.280   7.107
   86ETHO   H1114970   9.708  17.369   7.169
   86ETHO   H1314971   9.842  17.278   7.085
   86ETHO    C214972   9.686  17.145   7.173
   86ETHO   H2114973   9.577  17.144   7.151
   86ETHO   H2314974   9.712  17.141   7.281
   87ETHO    O114975   9.742  17.032   7.108
   87ETHO    C114976   9.866  16.998   7.165
   87ETHO   H1114977   9.942  17.079   7.160
   87ETHO   H1314978   9.856  16.958   7.269
   87ETHO    C214979   9.950  16.887   7.084
   87ETHO   H2114980  10.058  16.885   7.109
   87ETHO   H2314981   9.949  16.908   6.975
   88ETHO    O114982   9.888  16.762   7.108
   88ETHO    C114983   9.953  16.656   7.035
   88ETHO   H1114984  10.063  16.659   7.051
   88ETHO   H1314985   9.931  16.672   6.927
   88ETHO    C214986   9.888  16.520   7.078
   88ETHO   H2114987   9.924  16.435   7.016
   88ETHO   H2314988   9.777  16.521   7.088
   89ETHO    O114989   9.931  16.475   7.205
   89ETHO    C114990   9.879  16.354   7.247
   89ETHO   H1114991   9.771  16.376   7.257
   89ETHO   H1314992   9.894  16.283   7.162
   89ETHO    C214993   9.925  16.298   7.377
   89ETHO   H2114994   9.850  16.228   7.419
   89ETHO   H2314995   9.933  16.381   7.450
   90ETHO    O114996  10.056  16.241   7.354
   90ETHO    C114997  10.100  16.186   7.474
   90ETHO   H1114998  10.135  16.265   7.544
   90ETHO   H1314999  10.009  16.133   7.511
   90ETHO    C215000  10.217  16.090   7.446
   90ETHO   H2115001  10.224  16.063   7.338
   90ETHO   H2315002  10.201  15.999   7.509
   91ETHO    O115003  10.345  16.161   7.481
   91ETHO    C115004  10.455  16.075   7.452
   91ETHO   H1115005  10.456  15.970   7.487
   91ETHO   H1315006  10.464  16.065   7.342
   91ETHO    C215007  10.584  16.145   7.476
   91ETHO   H2115008  10.591  16.247   7.433
   91ETHO   H2315009  10.669  16.088   7.434
   92ETHO    O115010  10.599  16.143   7.616
   92ETHO    C115011  10.724  16.200   7.658
   92ETHO   H1115012  10.811  16.157   7.604
   92ETHO   H1315013  10.727  16.306   7.624
   92ETHO    C215014  10.750  16.192   7.803
   92ETHO   H2115015  10.847  16.243   7.819
   92ETHO   H2315016  10.769  16.090   7.841
   93ETHO    O115017  10.645  16.261   7.887
   93ETHO    C115018  10.685  16.398   7.914
   93ETHO   H1115019  10.721  16.454   7.825
   93ETHO   H1315020  10.769  16.395   7.986
   93ETHO    C215021  10.571  16.478   7.979
   93ETHO   H2115022  10.471  16.446   7.946
   93ETHO   H2315023  10.585  16.586   7.957
   94ETHO    O115024  10.585  16.459   8.116
   94ETHO    C115025  10.488  16.521   8.194
   94ETHO   H1115026  10.486  16.632   8.182
   94ETHO   H1315027  10.396  16.467   8.163
   94ETHO    C215028  10.513  16.494   8.345
   94ETHO   H2115029  10.459  16.572   8.402
   94ETHO   H2315030  10.623  16.501   8.363
   95ETHO    O115031  10.458  16.370   8.388
   95ETHO    C115032  10.485  16.348   8.531
   95ETHO   H1115033  10.410  16.402   8.592
   95ETHO   H1315034  10.584  16.391   8.561
   95ETHO    C215035  10.466  16.200   8.554
   95ETHO   H2115036  10.367  16.175   8.510
   95ETHO   H2315037  10.465  16.191   8.664
   96ETHO    O115038  10.577  16.121   8.494
   96ETHO    C115039  10.556  15.979   8.493
   96ETHO   H1115040  10.463  15.962   8.435
   96ETHO   H1315041  10.653  15.956   8.443
   96ETHO    C215042  10.557  15.905   8.628
   96ETHO   H2115043  10.631  15.956   8.694
   96ETHO   H2315044  10.579  15.797   8.616
   97ETHO    O115045  10.433  15.902   8.698
   97ETHO    C115046  10.445  15.844   8.830
   97ETHO   H1115047  10.550  15.858   8.866
   97ETHO   H1315048  10.427  15.735   8.825
   97ETHO    C215049  10.334  15.883   8.934
   97ETHO   H2115050  10.236  15.853   8.891
   97ETHO   H2315051  10.323  15.993   8.938
   98ETHO    O115052  10.365  15.824   9.055
   98ETHO    C115053  10.273  15.714   9.082
   98ETHO   H1115054  10.168  15.750   9.086
   98ETHO   H1315055  10.283  15.641   8.999
   98ETHO    C215056  10.313  15.660   9.221
   98ETHO   H2115057  10.222  15.638   9.282
   98ETHO   H2315058  10.364  15.739   9.281
   99ETHO    O115059  10.381  15.532   9.205
   99ETHO    C115060  10.280  15.432   9.187
   99ETHO   H1115061  10.322  15.365   9.108
   99ETHO   H1315062  10.184  15.478   9.157
   99ETHO    C215063  10.261  15.356   9.318
   99ETHO   H2115064  10.168  15.296   9.309
   99ETHO   H2315065  10.240  15.438   9.390
  100ETHO    O115066  10.366  15.267   9.348
  100ETHO    C115067  10.480  15.338   9.391
  100ETHO   H1115068  10.540  15.373   9.304
  100ETHO   H1315069  10.447  15.422   9.456
  100ETHO    C215070  10.563  15.248   9.481
  100ETHO   H2115071  10.514  15.211   9.574
  100ETHO   H2315072  10.634  15.316   9.533
  101PROX    O115073  10.635  15.149   9.406
  101PROX    C115074  10.575  15.017   9.410
  101PROX   H1115075  10.539  14.998   9.513
  101PROX   H1315076  10.490  15.018   9.338
  101PROX    C215077  10.672  14.903   9.361
  101PROX   H2115078  10.734  14.887   9.451
  101PROX    C315079  10.774  14.948   9.249
  101PROX   H3115080  10.739  14.956   9.144
  101PROX   H3215081  10.826  15.036   9.292
  101PROX   H3315082  10.855  14.873   9.233
  102PROX    O115083  10.601  14.783   9.322
  102PROX    C115084  10.679  14.664   9.330
  102PROX   H1115085  10.774  14.684   9.384
  102PROX   H1315086  10.622  14.584   9.381
  102PROX    C215087  10.711  14.615   9.185
  102PROX   H2115088  10.751  14.697   9.122
  102PROX    C315089  10.597  14.552   9.130
  102PROX   H3115090  10.517  14.628   9.113
  102PROX   H3215091  10.603  14.498   9.034
  102PROX   H3315092  10.549  14.479   9.198
  103PROX    O115093  10.804  14.509   9.187
  103PROX    C115094  10.935  14.549   9.226
  103PROX   H1115095  10.962  14.640   9.169
  103PROX   H1315096  10.947  14.568   9.335
  103PROX    C215097  11.029  14.435   9.191
  103PROX   H2115098  11.008  14.418   9.083
  103PROX    C315099  10.993  14.310   9.258
  103PROX   H3115100  10.970  14.314   9.367
  103PROX   H3215101  10.901  14.264   9.215
  103PROX   H3315102  11.078  14.240   9.247
  104PROX    O115103  11.163  14.480   9.212
  104PROX    C115104  11.257  14.426   9.116
  104PROX   H1115105  11.268  14.316   9.126
  104PROX   H1315106  11.217  14.444   9.014
  104PROX    C215107  11.397  14.483   9.143
  104PROX   H2115108  11.397  14.493   9.254
  104PROX    C315109  11.403  14.625   9.084
  104PROX   H3115110  11.510  14.650   9.066
  104PROX   H3215111  11.356  14.624   8.983
  104PROX   H3315112  11.368  14.705   9.151
  105PROX    O115113  11.499  14.405   9.089
  105PROX    C115114  11.539  14.301   9.181
  105PROX   H1115115  11.564  14.336   9.283
  105PROX   H1315116  11.455  14.230   9.190
  105PROX    C215117  11.660  14.227   9.125
  105PROX   H2115118  11.695  14.143   9.189
  105PROX    C315119  11.779  14.306   9.093
  105PROX   H3115120  11.751  14.385   9.019
  105PROX   H3215121  11.822  14.351   9.184
  105PROX   H3315122  11.861  14.246   9.049
  106PROX    O115123  11.622  14.171   8.998
  106PROX    C115124  11.665  14.041   8.960
  106PROX   H1115125  11.644  14.038   8.851
  106PROX   H1315126  11.772  14.021   8.984
  106PROX    C215127  11.580  13.932   9.025
  106PROX   H2115128  11.594  13.838   8.969
  106PROX    C315129  11.431  13.966   9.014
  106PROX   H3115130  11.378  13.894   9.081
  106PROX   H3215131  11.413  14.068   9.055
  106PROX   H3315132  11.385  13.968   8.913
  107PROX    O115133  11.611  13.910   9.163
  107PROX    C115134  11.570  13.777   9.214
  107PROX   H1115135  11.460  13.768   9.227
  107PROX   H1315136  11.608  13.694   9.150
  107PROX    C215137  11.642  13.742   9.347
  107PROX   H2115138  11.748  13.773   9.335
  107PROX    C315139  11.633  13.593   9.390
  107PROX   H3115140  11.688  13.529   9.318
  107PROX   H3215141  11.678  13.592   9.492
  107PROX   H3315142  11.527  13.562   9.405
  108PROX    O115143  11.580  13.801   9.454
  108PROX    C115144  11.610  13.943   9.464
  108PROX   H1115145  11.634  13.993   9.368
  108PROX   H1315146  11.527  13.996   9.516
  108PROX    C215147  11.733  13.963   9.557
  108PROX   H2115148  11.825  13.926   9.508
  108PROX    C315149  11.710  13.896   9.693
  108PROX   H3115150  11.702  13.786   9.684
  108PROX   H3215151  11.768  13.916   9.785
  108PROX   H3315152  11.605  13.923   9.717
  109PROX    O115153  11.751  14.100   9.592
  109PROX    C115154  11.799  14.186   9.492
  109PROX   H1115155  11.890  14.137   9.449
  109PROX   H1315156  11.730  14.200   9.406
  109PROX    C215157  11.855  14.319   9.548
  109PROX   H2115158  11.924  14.357   9.470
  109PROX    C315159  11.945  14.293   9.672
  109PROX   H3115160  12.033  14.231   9.643
  109PROX   H3215161  11.974  14.383   9.731
  109PROX   H3315162  11.890  14.223   9.738
  110PROX    O115163  11.755  14.412   9.571
  110PROX    C115164  11.812  14.541   9.592
  110PROX   H1115165  11.849  14.555   9.696
  110PROX   H1315166  11.890  14.555   9.514
  110PROX    C215167  11.706  14.650   9.572
  110PROX   H2115168  11.638  14.639   9.659
  110PROX    C315169  11.634  14.632   9.432
  110PROX   H3115170  11.583  14.534   9.422
  110PROX   H3215171  11.546  14.700   9.439
  110PROX   H3315172  11.698  14.660   9.345
  111PROX    O115173  11.763  14.777   9.568
  111PROX    C115174  11.811  14.814   9.699
  111PROX   H1115175  11.729  14.814   9.774
  111PROX   H1315176  11.896  14.748   9.730
  111PROX    C215177  11.867  14.963   9.697
  111PROX   H2115178  11.788  15.021   9.645
  111PROX    C315179  11.994  14.985   9.603
  111PROX   H3115180  12.074  14.916   9.634
  111PROX   H3215181  11.968  14.959   9.498
  111PROX   H3315182  12.025  15.092   9.612
  112PROX    O115183  11.900  15.017   9.827
  112PROX    C115184  11.966  14.929   9.915
  112PROX   H1115185  11.882  14.870   9.956
  112PROX   H1315186  12.048  14.872   9.865
  112PROX    C215187  12.030  15.009  10.032
  112PROX   H2115188  11.952  15.075  10.078
  112PROX    C315189  12.135  15.098   9.978
  112PROX   H3115190  12.184  15.166  10.051
  112PROX   H3215191  12.208  15.023   9.941
  112PROX   H3315192  12.098  15.157   9.891
  113PROX    O115193  12.096  14.929  10.129
  113PROX    C115194  12.017  14.839  10.192
  113PROX   H1115195  11.931  14.877  10.252
  113PROX   H1315196  11.963  14.781  10.114
  113PROX    C215197  12.106  14.758  10.276
  113PROX   H2115198  12.135  14.817  10.366
  113PROX    C315199  12.223  14.686  10.212
  113PROX   H3115200  12.188  14.625  10.127
  113PROX   H3215201  12.290  14.767  10.177
  113PROX   H3315202  12.282  14.617  10.277
  114PROX    O115203  12.026  14.646  10.323
  114PROX    C115204  11.929  14.666  10.429
  114PROX   H1115205  11.973  14.726  10.512
  114PROX   H1315206  11.842  14.719  10.383
  114PROX    C215207  11.870  14.535  10.492
  114PROX   H2115208  11.959  14.474  10.520
  114PROX    C315209  11.793  14.441  10.398
  114PROX   H3115210  11.731  14.503  10.330
  114PROX   H3215211  11.871  14.381  10.346
  114PROX   H3315212  11.732  14.366  10.452
  115PROX    O115213  11.793  14.572  10.614
  115PROX    C115214  11.802  14.477  10.725
  115PROX   H1115215  11.771  14.375  10.695
  115PROX   H1315216  11.903  14.481  10.771
  115PROX    C215217  11.693  14.523  10.830
  115PROX   H2115218  11.595  14.528  10.777
  115PROX    C315219  11.719  14.662  10.895
  115PROX   H3115220  11.804  14.671  10.965
  115PROX   H3215221  11.735  14.738  10.815
  115PROX   H3315222  11.633  14.688  10.960
  116PROX    O115223  11.688  14.434  10.939
  116PROX    C115224  11.594  14.332  10.920
  116PROX   H1115225  11.587  14.309  10.812
  116PROX   H1315226  11.635  14.235  10.955
  116PROX    C215227  11.454  14.362  10.983
  116PROX   H2115228  11.405  14.437  10.918
  116PROX    C315229  11.466  14.412  11.128
  116PROX   H3115230  11.499  14.518  11.136
  116PROX   H3215231  11.365  14.413  11.173
  116PROX   H3315232  11.531  14.349  11.192
  117PROX    O115233  11.367  14.252  10.970
  117PROX    C115234  11.328  14.212  10.834
  117PROX   H1115235  11.295  14.297  10.771
  117PROX   H1315236  11.422  14.173  10.788
  117PROX    C215237  11.211  14.102  10.826
  117PROX   H2115238  11.115  14.150  10.854
  117PROX    C315239  11.223  13.986  10.922
  117PROX   H3115240  11.203  14.028  11.023
  117PROX   H3215241  11.150  13.902  10.910
  117PROX   H3315242  11.327  13.947  10.926
  118PROX    O115243  11.209  14.038  10.700
  118PROX    C115244  11.140  14.117  10.602
  118PROX   H1115245  11.046  14.141  10.656
  118PROX   H1315246  11.194  14.212  10.582
  118PROX    C215247  11.117  14.038  10.473
  118PROX   H2115248  11.045  13.955  10.490
  118PROX    C315249  11.254  13.992  10.410
  118PROX   H3115250  11.285  13.893  10.451
  118PROX   H3215251  11.236  13.985  10.300
  118PROX   H3315252  11.325  14.069  10.447
  119PROX    O115253  11.065  14.123  10.369
  119PROX    C115254  10.967  14.061  10.291
  119PROX   H1115255  11.003  13.967  10.244
  119PROX   H1315256  10.866  14.044  10.334
  119PROX    C215257  10.935  14.163  10.176
  119PROX   H2115258  11.035  14.175  10.129
  119PROX    C315259  10.867  14.296  10.219
  119PROX   H3115260  10.936  14.342  10.292
  119PROX   H3215261  10.835  14.348  10.126
  119PROX   H3315262  10.779  14.274  10.284
  120PROX    O115263  10.859  14.089  10.084
  120PROX    C115264  10.857  14.147   9.957
  120PROX   H1115265  10.786  14.233   9.950
  120PROX   H1315266  10.960  14.179   9.930
  120PROX    C215267  10.823  14.040   9.858
  120PROX   H2115268  10.722  14.002   9.884
  120PROX    C315269  10.913  13.920   9.866
  120PROX   H3115270  10.926  13.895   9.973
  120PROX   H3215271  10.859  13.836   9.816
  120PROX   H3315272  11.011  13.931   9.815
  121PROX    O115273  10.828  14.095   9.729
  121PROX    C115274  10.771  14.018   9.622
  121PROX   H1115275  10.811  13.914   9.615
  121PROX   H1315276  10.660  14.017   9.631
  121PROX    C215277  10.814  14.089   9.489
  121PROX   H2115278  10.844  14.192   9.515
  121PROX    C315279  10.702  14.103   9.394
  121PROX   H3115280  10.685  14.006   9.342
  121PROX   H3215281  10.604  14.114   9.445
  121PROX   H3315282  10.720  14.188   9.325
  122PROX    O115283  10.934  14.015   9.440
  122PROX    C115284  11.049  14.068   9.509
  122PROX   H1115285  11.062  14.172   9.472
  122PROX   H1315286  11.043  14.071   9.620
  122PROX    C215287  11.177  13.993   9.467
  122PROX   H2115288  11.262  14.037   9.524
  122PROX    C315289  11.222  13.999   9.324
  122PROX   H3115290  11.138  13.955   9.267
  122PROX   H3215291  11.227  14.107   9.297
  122PROX   H3315292  11.319  13.950   9.305
  123PROX    O115293  11.181  13.857   9.484
  123PROX    C115294  11.173  13.815   9.621
  123PROX   H1115295  11.199  13.906   9.679
  123PROX   H1315296  11.070  13.777   9.630
  123PROX    C215297  11.277  13.711   9.645
  123PROX   H2115298  11.372  13.748   9.601
  123PROX    C315299  11.238  13.578   9.580
  123PROX   H3115300  11.313  13.501   9.610
  123PROX   H3215301  11.137  13.545   9.610
  123PROX   H3315302  11.235  13.583   9.469
  124PROX    O115303  11.288  13.687   9.784
  124PROX    C115304  11.386  13.765   9.848
  124PROX   H1115305  11.488  13.747   9.809
  124PROX   H1315306  11.349  13.869   9.843
  124PROX    C215307  11.387  13.737  10.003
  124PROX   H2115308  11.407  13.630  10.026
  124PROX    C315309  11.246  13.764  10.072
  124PROX   H3115310  11.165  13.697  10.037
  124PROX   H3215311  11.231  13.736  10.178
  124PROX   H3315312  11.225  13.873  10.064
  125PROX    O115313  11.483  13.813  10.067
  125PROX    C115314  11.501  13.772  10.201
  125PROX   H1115315  11.416  13.719  10.250
  125PROX   H1315316  11.578  13.692  10.201
  125PROX    C215317  11.548  13.892  10.285
  125PROX   H2115318  11.479  13.973  10.253
  125PROX    C315319  11.691  13.946  10.261
  125PROX   H3115320  11.708  13.990  10.161
  125PROX   H3215321  11.721  14.025  10.333
  125PROX   H3315322  11.759  13.860  10.276
  126PROX    O115323  11.525  13.864  10.423
  126PROX    C115324  11.605  13.755  10.474
  126PROX   H1115325  11.537  13.668  10.461
  126PROX   H1315326  11.696  13.743  10.411
  126PROX    C215327  11.648  13.767  10.629
  126PROX   H2115328  11.704  13.674  10.649
  126PROX    C315329  11.519  13.790  10.715
  126PROX   H3115330  11.488  13.897  10.707
  126PROX   H3215331  11.436  13.720  10.698
  126PROX   H3315332  11.553  13.758  10.816
  127PROX    O115333  11.743  13.870  10.640
  127PROX    C115334  11.811  13.850  10.765
  127PROX   H1115335  11.760  13.768  10.821
  127PROX   H1315336  11.914  13.812  10.748
  127PROX    C215337  11.790  13.979  10.842
  127PROX   H2115338  11.686  14.011  10.820
  127PROX    C315339  11.889  14.090  10.792
  127PROX   H3115340  11.994  14.082  10.828
  127PROX   H3215341  11.887  14.088  10.681
  127PROX   H3315342  11.858  14.189  10.832
  128PROX    O115343  11.808  13.958  10.983
  128PROX    C115344  11.690  13.912  11.056
  128PROX   H1115345  11.596  13.927  11.000
  128PROX   H1315346  11.694  13.803  11.078
  128PROX    C215347  11.685  13.996  11.188
  128PROX   H2115348  11.670  14.103  11.163
  128PROX    C315349  11.820  13.988  11.267
  128PROX   H3115350  11.796  14.014  11.373
  128PROX   H3215351  11.870  13.891  11.248
  128PROX   H3315352  11.883  14.074  11.238
  129PROX    O115353  11.577  13.951  11.267
  129PROX    C115354  11.453  14.005  11.215
  129PROX   H1115355  11.460  14.113  11.241
  129PROX   H1315356  11.441  13.999  11.105
  129PROX    C215357  11.336  13.939  11.292
  129PROX   H2115358  11.362  13.952  11.400
  129PROX    C315359  11.330  13.787  11.258
  129PROX   H3115360  11.413  13.753  11.323
  129PROX   H3215361  11.235  13.751  11.302
  129PROX   H3315362  11.345  13.766  11.150
  130PROX    O115363  11.210  14.005  11.256
  130PROX    C115364  11.088  13.942  11.305
  130PROX   H1115365  11.069  13.858  11.234
  130PROX   H1315366  11.118  13.901  11.403
  130PROX    C215367  10.970  14.036  11.326
  130PROX   H2115368  11.007  14.123  11.384
  130PROX    C315369  10.857  13.956  11.393
  130PROX   H3115370  10.786  14.036  11.423
  130PROX   H3215371  10.804  13.901  11.312
  130PROX   H3315372  10.877  13.914  11.493
  131PROX    O115373  10.922  14.074  11.197
  131PROX    C115374  10.852  14.208  11.204
  131PROX   H1115375  10.783  14.215  11.290
  131PROX   H1315376  10.919  14.295  11.221
  131PROX    C215377  10.774  14.245  11.070
  131PROX   H2115378  10.681  14.183  11.076
  131PROX    C315379  10.856  14.205  10.953
  131PROX   H3115380  10.894  14.101  10.956
  131PROX   H3215381  10.800  14.230  10.860
  131PROX   H3315382  10.943  14.275  10.944
  132PROX    O115383  10.744  14.384  11.070
  132PROX    C115384  10.670  14.434  10.959
  132PROX   H1115385  10.731  14.426  10.866
  132PROX   H1315386  10.575  14.377  10.954
  132PROX    C215387  10.637  14.584  10.978
  132PROX   H2115388  10.591  14.591  11.079
  132PROX    C315389  10.540  14.611  10.865
  132PROX   H3115390  10.549  14.712  10.819
  132PROX   H3215391  10.552  14.544  10.777
  132PROX   H3315392  10.437  14.606  10.906
  133PROX    O115393  10.755  14.663  10.970
  133PROX    C115394  10.727  14.799  11.006
  133PROX   H1115395  10.668  14.836  10.920
  133PROX   H1315396  10.657  14.822  11.090
  133PROX    C215397  10.862  14.876  11.026
  133PROX   H2115398  10.944  14.838  10.961
  133PROX    C315399  10.902  14.854  11.169
  133PROX   H3115400  10.926  14.748  11.193
  133PROX   H3215401  10.999  14.908  11.174
  133PROX   H3315402  10.833  14.890  11.248
  134PROX    O115403  10.829  15.013  10.996
  134PROX    C115404  10.934  15.075  10.926
  134PROX   H1115405  10.923  15.183  10.951
  134PROX   H1315406  11.030  15.034  10.964
  134PROX    C215407  10.933  15.042  10.780
  134PROX   H2115408  10.925  14.933  10.765
  134PROX    C315409  11.061  15.091  10.712
  134PROX   H3115410  11.048  15.072  10.603
  134PROX   H3215411  11.081  15.199  10.724
  134PROX   H3315412  11.143  15.034  10.762
  135PROX    O115413  10.822  15.114  10.722
  135PROX    C115414  10.787  15.059  10.590
  135PROX   H1115415  10.872  15.013  10.536
  135PROX   H1315416  10.733  14.967  10.621
  135PROX    C215417  10.711  15.164  10.499
  135PROX   H2115418  10.652  15.234  10.562
  135PROX    C315419  10.618  15.106  10.394
  135PROX   H3115420  10.546  15.178  10.349
  135PROX   H3215421  10.674  15.057  10.312
  135PROX   H3315422  10.554  15.030  10.444
  136PROX    O115423  10.813  15.251  10.444
  136PROX    C115424  10.765  15.363  10.368
  136PROX   H1115425  10.760  15.328  10.262
  136PROX   H1315426  10.671  15.409  10.406
  136PROX    C215427  10.872  15.478  10.368
  136PROX   H2115428  10.886  15.519  10.471
  136PROX    C315429  10.828  15.590  10.274
  136PROX   H3115430  10.802  15.545  10.175
  136PROX   H3215431  10.735  15.639  10.311
  136PROX   H3315432  10.908  15.665  10.258
  137PROX    O115433  10.995  15.426  10.314
  137PROX    C115434  11.103  15.496  10.372
  137PROX   H1115435  11.102  15.602  10.339
  137PROX   H1315436  11.086  15.498  10.482
  137PROX    C215437  11.243  15.449  10.327
  137PROX   H2115438  11.245  15.456  10.216
  137PROX    C315439  11.259  15.305  10.372
  137PROX   H3115440  11.198  15.234  10.312
  137PROX   H3215441  11.363  15.270  10.358
  137PROX   H3315442  11.226  15.307  10.479
  138PROX    O115443  11.333  15.540  10.387
  138PROX    C115444  11.457  15.549  10.311
  138PROX   H1115445  11.512  15.452  10.313
  138PROX   H1315446  11.446  15.578  10.205
  138PROX    C215447  11.541  15.659  10.379
  138PROX   H2115448  11.482  15.753  10.373
  138PROX    C315449  11.671  15.693  10.301
  138PROX   H3115450  11.654  15.745  10.204
  138PROX   H3215451  11.737  15.765  10.354
  138PROX   H3315452  11.731  15.601  10.281
  139PROX    O115453  11.568  15.632  10.519
  139PROX    C115454  11.657  15.519  10.541
  139PROX   H1115455  11.621  15.424  10.495
  139PROX   H1315456  11.756  15.539  10.494
  139PROX    C215457  11.673  15.477  10.684
  139PROX   H2115458  11.676  15.568  10.747
  139PROX    C315459  11.802  15.400  10.706
  139PROX   H3115460  11.807  15.306  10.647
  139PROX   H3215461  11.879  15.467  10.663
  139PROX   H3315462  11.817  15.383  10.815
  140PROX    O115463  11.565  15.399  10.738
  140PROX    C115464  11.446  15.470  10.753
  140PROX   H1115465  11.459  15.566  10.807
  140PROX   H1315466  11.418  15.492  10.648
  140PROX    C215467  11.340  15.389  10.822
  140PROX   H2115468  11.328  15.288  10.777
  140PROX    C315469  11.197  15.452  10.815
  140PROX   H3115470  11.168  15.476  10.710
  140PROX   H3215471  11.116  15.386  10.852
  140PROX   H3315472  11.188  15.546  10.874
  141PROX    O115473  11.368  15.370  10.963
  141PROX    C115474  11.485  15.287  10.989
  141PROX   H1115475  11.504  15.218  10.904
  141PROX   H1315476  11.572  15.355  10.982
  141PROX    C215477  11.476  15.216  11.122
  141PROX   H2115478  11.386  15.241  11.182
  141PROX    C315479  11.591  15.256  11.222
  141PROX   H3115480  11.575  15.202  11.318
  141PROX   H3215481  11.689  15.238  11.175
  141PROX   H3315482  11.603  15.367  11.229
  142PROX    O115483  11.487  15.073  11.102
  142PROX    C115484  11.358  15.007  11.092
  142PROX   H1115485  11.335  14.983  11.198
  142PROX   H1315486  11.289  15.085  11.054
  142PROX    C215487  11.379  14.882  10.995
  142PROX   H2115488  11.435  14.806  11.054
  142PROX    C315489  11.470  14.916  10.877
  142PROX   H3115490  11.474  14.834  10.801
  142PROX   H3215491  11.437  15.010  10.828
  142PROX   H3315492  11.573  14.925  10.917
  143PROX    O115493  11.251  14.816  10.965
  143PROX    C115494  11.262  14.714  10.867
  143PROX   H1115495  11.256  14.774  10.773
  143PROX   H1315496  11.361  14.663  10.866
  143PROX    C215497  11.131  14.627  10.867
  143PROX   H2115498  11.048  14.688  10.826
  143PROX    C315499  11.096  14.566  11.004
  143PROX   H3115500  11.075  14.650  11.074
  143PROX   H3215501  11.006  14.504  10.986
  143PROX   H3315502  11.179  14.503  11.044
  144PROX    O115503  11.143  14.514  10.793
  144PROX    C115504  11.127  14.545  10.654
  144PROX   H1115505  11.167  14.644  10.624
  144PROX   H1315506  11.187  14.473  10.595
  144PROX    C215507  10.981  14.551  10.597
  144PROX   H2115508  10.927  14.620  10.665
  144PROX    C315509  10.911  14.413  10.600
  144PROX   H3115510  10.972  14.338  10.545
  144PROX   H3215511  10.920  14.377  10.705
  144PROX   H3315512  10.805  14.415  10.567
  145PROX    O115513  10.982  14.608  10.462
  145PROX    C115514  10.849  14.635  10.418
  145PROX   H1115515  10.798  14.538  10.398
  145PROX   H1315516  10.789  14.696  10.489
  145PROX    C215517  10.843  14.710  10.284
  145PROX   H2115518  10.887  14.637  10.212
  145PROX    C315519  10.926  14.838  10.290
  145PROX   H3115520  10.865  14.915  10.344
  145PROX   H3215521  11.017  14.821  10.351
  145PROX   H3315522  10.949  14.871  10.187
  146PROX    O115523  10.714  14.751  10.261
  146PROX    C115524  10.693  14.783  10.131
  146PROX   H1115525  10.735  14.884  10.112
  146PROX   H1315526  10.763  14.730  10.063
  146PROX    C215527  10.543  14.773  10.094
  146PROX   H2115528  10.503  14.867  10.139
  146PROX    C315529  10.480  14.645  10.159
  146PROX   H3115530  10.448  14.656  10.265
  146PROX   H3215531  10.389  14.599  10.113
  146PROX   H3315532  10.550  14.559  10.148
  147PROX    O115533  10.527  14.783   9.950
  147PROX    C115534  10.392  14.801   9.909
  147PROX   H1115535  10.321  14.736   9.963
  147PROX   H1315536  10.372  14.908   9.931
  147PROX    C215537  10.370  14.773   9.755
  147PROX   H2115538  10.437  14.843   9.700
  147PROX    C315539  10.226  14.816   9.713
  147PROX   H3115540  10.199  14.920   9.739
  147PROX   H3215541  10.194  14.808   9.607
  147PROX   H3315542  10.163  14.739   9.763
  148PROX    O115543  10.393  14.644   9.714
  148PROX    C115544  10.521  14.601   9.713
  148PROX   H1115545  10.585  14.673   9.657
  148PROX   H1315546  10.561  14.591   9.817
  148PROX    C215547  10.533  14.456   9.655
  148PROX   H2115548  10.517  14.454   9.545
  148PROX    C315549  10.437  14.345   9.710
  148PROX   H3115550  10.405  14.369   9.814
  148PROX   H3215551  10.342  14.344   9.653
  148PROX   H3315552  10.481  14.244   9.699
  149PROX    O115553  10.648  14.397   9.697
  149PROX    C115554  10.764  14.455   9.645
  149PROX   H1115555  10.787  14.404   9.549
  149PROX   H1315556  10.761  14.565   9.627
  149PROX    C215557  10.876  14.438   9.747
  149PROX   H2115558  10.893  14.329   9.761
  149PROX    C315559  10.846  14.512   9.874
  149PROX   H3115560  10.917  14.502   9.958
  149PROX   H3215561  10.849  14.621   9.855
  149PROX   H3315562  10.746  14.492   9.919
  150PROX    O115563  10.985  14.495   9.684
  150PROX    C115564  11.114  14.433   9.694
  150PROX   H1115565  11.155  14.430   9.797
  150PROX   H1315566  11.090  14.330   9.661
  150PROX    C215567  11.209  14.507   9.594
  150PROX   H2115568  11.145  14.526   9.504
  150PROX    C315569  11.337  14.423   9.570
  150PROX   H3115570  11.388  14.416   9.669
  150PROX   H3215571  11.313  14.315   9.555
  150PROX   H3315572  11.407  14.460   9.492
  151PROX    O115573  11.261  14.626   9.645
  151PROX    C115574  11.293  14.723   9.549
  151PROX   H1115575  11.362  14.797   9.595
  151PROX   H1315576  11.344  14.671   9.465
  151PROX    C215577  11.172  14.816   9.511
  151PROX   H2115578  11.076  14.760   9.524
  151PROX    C315579  11.190  14.878   9.367
  151PROX   H3115580  11.100  14.933   9.333
  151PROX   H3215581  11.279  14.943   9.373
  151PROX   H3315582  11.212  14.799   9.292
  152PROX    O115583  11.172  14.926   9.607
  152PROX    C115584  11.059  15.017   9.589
  152PROX   H1115585  11.090  15.120   9.618
  152PROX   H1315586  11.009  15.009   9.490
  152PROX    C215587  10.950  14.979   9.692
  152PROX   H2115588  11.008  15.011   9.782
  152PROX    C315589  10.907  14.835   9.708
  152PROX   H3115590  10.992  14.765   9.723
  152PROX   H3215591  10.845  14.822   9.800
  152PROX   H3315592  10.850  14.805   9.618
  153PROX    O115593  10.850  15.074   9.675
  153PROX    C115594  10.739  15.051   9.764
  153PROX   H1115595  10.659  15.119   9.727
  153PROX   H1315596  10.695  14.950   9.747
  153PROX    C215597  10.758  15.085   9.914
  153PROX   H2115598  10.801  15.003   9.976
  153PROX    C315599  10.618  15.119   9.972
  153PROX   H3115600  10.543  15.038   9.963
  153PROX   H3215601  10.626  15.144  10.080
  153PROX   H3315602  10.584  15.214   9.925
  154PROX    O115603  10.850  15.194   9.924
  154PROX    C115604  10.900  15.200  10.059
  154PROX   H1115605  10.896  15.302  10.104
  154PROX   H1315606  10.846  15.133  10.129
  154PROX    C215607  11.054  15.182  10.044
  154PROX   H2115608  11.090  15.174  10.149
  154PROX    C315609  11.118  15.302   9.972
  154PROX   H3115610  11.050  15.387   9.992
  154PROX   H3215611  11.218  15.316  10.019
  154PROX   H3315612  11.120  15.281   9.863
  155PROX    O115613  11.086  15.061   9.984
  155PROX    C115614  11.219  15.013  10.024
  155PROX   H1115615  11.297  15.084   9.988
  155PROX   H1315616  11.220  14.992  10.133
  155PROX    C215617  11.263  14.884   9.950
  155PROX   H2115618  11.270  14.902   9.840
  155PROX    C315619  11.166  14.772   9.980
  155PROX   H3115620  11.193  14.686   9.914
  155PROX   H3215621  11.180  14.739  10.086
  155PROX   H3315622  11.063  14.800   9.948
  156PROX    O115623  11.393  14.844   9.999
  156PROX    C115624  11.471  14.765   9.903
  156PROX   H1115625  11.400  14.698   9.849
  156PROX   H1315626  11.512  14.837   9.829
  156PROX    C215627  11.570  14.688   9.992
  156PROX   H2115628  11.518  14.626  10.069
  156PROX    C315629  11.656  14.787  10.073
  156PROX   H3115630  11.684  14.868  10.002
  156PROX   H3215631  11.584  14.826  10.149
  156PROX   H3315632  11.737  14.738  10.131
  157PROX    O115633  11.662  14.609   9.917
  157PROX    C115634  11.604  14.478   9.877
  157PROX   H1115635  11.502  14.501   9.840
  157PROX   H1315636  11.669  14.438   9.796
  157PROX    C215637  11.614  14.376   9.991
  157PROX   H2115638  11.554  14.398  10.082
  157PROX    C315639  11.755  14.361  10.033
  157PROX   H3115640  11.762  14.271  10.097
  157PROX   H3215641  11.823  14.359   9.945
  157PROX   H3315642  11.796  14.448  10.089
  158PROX    O115643  11.577  14.250   9.938
  158PROX    C115644  11.512  14.148  10.022
  158PROX   H1115645  11.518  14.047   9.977
  158PROX   H1315646  11.555  14.146  10.125
  158PROX    C215647  11.356  14.185  10.032
  158PROX   H2115648  11.303  14.103  10.084
  158PROX    C315649  11.289  14.190   9.897
  158PROX   H3115650  11.325  14.260   9.818
  158PROX   H3215651  11.281  14.093   9.844
  158PROX   H3315652  11.188  14.236   9.907
  159PROX    O115653  11.334  14.313  10.100
  159PROX    C115654  11.339  14.312  10.244
  159PROX   H1115655  11.281  14.221  10.271
  159PROX   H1315656  11.441  14.298  10.284
  159PROX    C215657  11.280  14.439  10.293
  159PROX   H2115658  11.242  14.436  10.397
  159PROX    C315659  11.179  14.499  10.199
  159PROX   H3115660  11.128  14.588  10.241
  159PROX   H3215661  11.235  14.533  10.110
  159PROX   H3315662  11.104  14.430  10.156
  160PROX    O115663  11.385  14.534  10.300
  160PROX    C115664  11.349  14.667  10.335
  160PROX   H1115665  11.334  14.726  10.242
  160PROX   H1315666  11.261  14.667  10.402
  160PROX    C215667  11.460  14.731  10.425
  160PROX   H2115668  11.556  14.745  10.372
  160PROX    C315669  11.484  14.629  10.537
  160PROX   H3115670  11.402  14.645  10.611
  160PROX   H3215671  11.496  14.526  10.498
  160PROX   H3315672  11.573  14.655  10.598
  161PROX    O115673  11.418  14.853  10.480
  161PROX    C115674  11.431  14.959  10.391
  161PROX   H1115675  11.411  14.932  10.285
  161PROX   H1315676  11.365  15.043  10.421
  161PROX    C215677  11.570  15.017  10.411
  161PROX   H2115678  11.637  14.940  10.369
  161PROX    C315679  11.613  15.042  10.560
  161PROX   H3115680  11.632  14.948  10.616
  161PROX   H3215681  11.710  15.096  10.568
  161PROX   H3315682  11.534  15.107  10.605
  162PROX    O115683  11.584  15.135  10.337
  162PROX    C115684  11.677  15.119  10.228
  162PROX   H1115685  11.773  15.073  10.262
  162PROX   H1315686  11.647  15.029  10.172
  162PROX    C215687  11.701  15.241  10.141
  162PROX   H2115688  11.774  15.219  10.060
  162PROX    C315689  11.775  15.355  10.215
  162PROX   H3115690  11.779  15.440  10.144
  162PROX   H3215691  11.715  15.381  10.304
  162PROX   H3315692  11.879  15.328  10.244
  163PROX    O115693  11.579  15.280  10.087
  163PROX    C115694  11.592  15.337   9.953
  163PROX   H1115695  11.567  15.444   9.966
  163PROX   H1315696  11.698  15.335   9.920
  163PROX    C215697  11.478  15.281   9.851
  163PROX   H2115698  11.385  15.304   9.908
  163PROX    C315699  11.498  15.135   9.812
  163PROX   H3115700  11.433  15.100   9.729
  163PROX   H3215701  11.602  15.137   9.773
  163PROX   H3315702  11.493  15.070   9.902
  164PROX    O115703  11.493  15.345   9.724
  164PROX    C115704  11.359  15.359   9.665
  164PROX   H1115705  11.295  15.275   9.697
  164PROX   H1315706  11.305  15.450   9.700
  164PROX    C215707  11.362  15.354   9.506
  164PROX   H2115708  11.401  15.253   9.480
  164PROX    C315709  11.455  15.459   9.442
  164PROX   H3115710  11.431  15.565   9.463
  164PROX   H3215711  11.555  15.443   9.489
  164PROX   H3315712  11.456  15.450   9.332
  165PROX    O115713  11.228  15.364   9.460
  165PROX    C115714  11.204  15.285   9.348
  165PROX   H1115715  11.289  15.288   9.276
  165PROX   H1315716  11.189  15.182   9.386
  165PROX    C215717  11.075  15.337   9.282
  165PROX   H2115718  11.084  15.444   9.254
  165PROX    C315719  10.950  15.329   9.384
  165PROX   H3115720  10.962  15.223   9.415
  165PROX   H3215721  10.980  15.402   9.462
  165PROX   H3315722  10.848  15.345   9.343
  166ETHO    O115723  11.048  15.258   9.167
  166ETHO    C115724  10.968  15.333   9.073
  166ETHO   H1115725  10.891  15.398   9.122
  166ETHO   H1315726  10.907  15.258   9.019
  166ETHO    C215727  11.059  15.408   8.969
  166ETHO   H2115728  10.992  15.448   8.891
  166ETHO   H2315729  11.131  15.330   8.934
  167ETHO    O115730  11.121  15.521   9.024
  167ETHO    C115731  11.193  15.587   8.922
  167ETHO   H1115732  11.238  15.507   8.859
  167ETHO   H1315733  11.135  15.662   8.863
  167ETHO    C215734  11.309  15.660   8.997
  167ETHO   H2115735  11.385  15.700   8.925
  167ETHO   H2315736  11.359  15.580   9.056
  168ETHO    O115737  11.265  15.761   9.080
  168ETHO    C115738  11.361  15.814   9.166
  168ETHO   H1115739  11.456  15.822   9.110
  168ETHO   H1315740  11.388  15.749   9.252
  168ETHO    C215741  11.313  15.952   9.227
  168ETHO   H2115742  11.313  16.035   9.154
  168ETHO   H2315743  11.380  15.989   9.307
  169ETHO    O115744  11.177  15.926   9.268
  169ETHO    C115745  11.115  16.029   9.347
  169ETHO   H1115746  11.181  16.032   9.437
  169ETHO   H1315747  11.128  16.127   9.296
  169ETHO    C215748  10.968  15.995   9.364
  169ETHO   H2115749  10.937  16.053   9.454
  169ETHO   H2315750  10.947  15.890   9.392
  170ETHO    O115751  10.883  16.034   9.251
  170ETHO    C115752  10.745  16.008   9.272
  170ETHO   H1115753  10.708  16.070   9.356
  170ETHO   H1315754  10.731  15.901   9.300
  170ETHO    C215755  10.657  16.038   9.142
  170ETHO   H2115756  10.557  15.994   9.161
  170ETHO   H2315757  10.693  15.986   9.051
  171ETHO    O115758  10.640  16.179   9.118
  171ETHO    C115759  10.606  16.191   8.980
  171ETHO   H1115760  10.687  16.160   8.911
  171ETHO   H1315761  10.522  16.119   8.970
  171ETHO    C215762  10.560  16.333   8.949
  171ETHO   H2115763  10.562  16.337   8.838
  171ETHO   H2315764  10.632  16.397   9.004
  172ETHO    O115765  10.428  16.375   8.986
  172ETHO    C115766  10.390  16.500   8.937
  172ETHO   H1115767  10.360  16.488   8.830
  172ETHO   H1315768  10.478  16.568   8.948
  172ETHO    C215769  10.268  16.554   9.005
  172ETHO   H2115770  10.248  16.655   8.962
  172ETHO   H2315771  10.284  16.574   9.113
  173ETHO    O115772  10.155  16.475   8.978
  173ETHO    C115773  10.033  16.526   9.023
  173ETHO   H1115774  10.036  16.532   9.134
  173ETHO   H1315775  10.006  16.620   8.970
  173ETHO    C215776   9.922  16.421   8.997
  173ETHO   H2115777   9.928  16.334   9.065
  173ETHO   H2315778   9.832  16.480   9.027
  174ETHO    O115779   9.919  16.379   8.858
  174ETHO    C115780   9.810  16.289   8.842
  174ETHO   H1115781   9.838  16.188   8.880
  174ETHO   H1315782   9.712  16.316   8.884
  174ETHO    C215783   9.778  16.250   8.699
  174ETHO   H2115784   9.706  16.165   8.700
  174ETHO   H2315785   9.869  16.219   8.645
  175ETHO    O115786   9.725  16.362   8.633
  175ETHO    C115787   9.691  16.324   8.501
  175ETHO   H1115788   9.761  16.244   8.469
  175ETHO   H1315789   9.590  16.279   8.507
  175ETHO    C215790   9.694  16.449   8.417
  175ETHO   H2115791   9.696  16.414   8.311
  175ETHO   H2315792   9.794  16.496   8.430
  176ETHO    O115793   9.582  16.528   8.435
  176ETHO    C115794   9.585  16.645   8.350
  176ETHO   H1115795   9.689  16.686   8.348
  176ETHO   H1315796   9.553  16.624   8.246
  176ETHO    C215797   9.487  16.753   8.412
  176ETHO   H2115798   9.518  16.852   8.374
  176ETHO   H2315799   9.503  16.753   8.522
  177ETHO    O115800   9.350  16.733   8.385
  177ETHO    C115801   9.270  16.837   8.430
  177ETHO   H1115802   9.283  16.926   8.364
  177ETHO   H1315803   9.318  16.858   8.528
  177ETHO    C215804   9.123  16.793   8.441
  177ETHO   H2115805   9.076  16.877   8.495
  177ETHO   H2315806   9.111  16.696   8.495
  178ETHO    O115807   9.058  16.785   8.317
  178ETHO    C115808   8.916  16.772   8.335
  178ETHO   H1115809   8.881  16.667   8.337
  178ETHO   H1315810   8.886  16.820   8.431
  178ETHO    C215811   8.839  16.838   8.227
  178ETHO   H2115812   8.734  16.804   8.235
  178ETHO   H2315813   8.878  16.821   8.124
  179ETHO    O115814   8.844  16.982   8.238
  179ETHO    C115815   8.835  17.044   8.106
  179ETHO   H1115816   8.925  17.020   8.046
  179ETHO   H1315817   8.839  17.154   8.126
  179ETHO    C215818   8.711  17.012   8.027
  179ETHO   H2115819   8.705  16.901   8.018
  179ETHO   H2315820   8.720  17.036   7.919
  180ETHO    O115821   8.600  17.073   8.085
  180ETHO    C115822   8.472  17.003   8.061
  180ETHO   H1115823   8.445  16.993   7.953
  180ETHO   H1315824   8.467  16.904   8.111
  180ETHO    C215825   8.362  17.098   8.102
  180ETHO   H2115826   8.364  17.113   8.212
  180ETHO   H2315827   8.267  17.053   8.064
  181ETHO    O115828   8.373  17.225   8.035
  181ETHO    C115829   8.266  17.305   8.074
  181ETHO   H1115830   8.269  17.326   8.183
  181ETHO   H1315831   8.165  17.266   8.049
  181ETHO    C215832   8.271  17.433   7.987
  181ETHO   H2115833   8.374  17.474   7.981
  181ETHO   H2315834   8.220  17.517   8.040
  182ETHO    O115835   8.205  17.435   7.858
  182ETHO    C115836   8.242  17.542   7.776
  182ETHO   H1115837   8.182  17.633   7.797
  182ETHO   H1315838   8.350  17.564   7.787
  182ETHO    C215839   8.213  17.499   7.632
  182ETHO   H2115840   8.249  17.394   7.623
  182ETHO   H2315841   8.249  17.553   7.542
  183ETHO    O115842   8.076  17.486   7.615
  183ETHO    C115843   8.044  17.425   7.493
  183ETHO   H1115844   8.064  17.316   7.500
  183ETHO   H1315845   8.105  17.460   7.407
  183ETHO    C215846   7.891  17.438   7.470
  183ETHO   H2115847   7.872  17.406   7.366
  183ETHO   H2315848   7.869  17.547   7.473
  184ETHO    O115849   7.817  17.363   7.570
  184ETHO    C115850   7.714  17.278   7.515
  184ETHO   H1115851   7.760  17.214   7.437
  184ETHO   H1315852   7.685  17.206   7.594
  184ETHO    C215853   7.591  17.355   7.451
  184ETHO   H2115854   7.550  17.420   7.531
  184ETHO   H2315855   7.508  17.286   7.424
  185ETHO    O115856   7.634  17.435   7.341
  185ETHO    C115857   7.524  17.466   7.261
  185ETHO   H1115858   7.465  17.375   7.234
  185ETHO   H1315859   7.460  17.544   7.307
  185ETHO    C215860   7.564  17.537   7.126
  185ETHO   H2115861   7.624  17.458   7.076
  185ETHO   H2315862   7.615  17.630   7.157
  186ETHO    O115863   7.458  17.563   7.035
  186ETHO    C115864   7.496  17.673   6.946
  186ETHO   H1115865   7.523  17.765   7.002
  186ETHO   H1315866   7.568  17.635   6.871
  186ETHO    C215867   7.371  17.725   6.867
  186ETHO   H2115868   7.310  17.648   6.813
  186ETHO   H2315869   7.398  17.805   6.795
  187ETHO    O115870   7.277  17.768   6.960
  187ETHO    C115871   7.175  17.858   6.911
  187ETHO   H1115872   7.121  17.899   6.999
  187ETHO   H1315873   7.220  17.940   6.851
  187ETHO    C215874   7.073  17.796   6.813
  187ETHO   H2115875   6.982  17.859   6.799
  187ETHO   H2315876   7.035  17.698   6.850
  188ETHO    O115877   7.126  17.764   6.685
  188ETHO    C115878   7.038  17.683   6.600
  188ETHO   H1115879   7.020  17.745   6.510
  188ETHO   H1315880   6.943  17.652   6.647
  188ETHO    C215881   7.109  17.558   6.551
  188ETHO   H2115882   7.214  17.586   6.529
  188ETHO   H2315883   7.063  17.510   6.462
  189ETHO    O115884   7.111  17.464   6.655
  189ETHO    C115885   7.199  17.356   6.631
  189ETHO   H1115886   7.197  17.304   6.533
  189ETHO   H1315887   7.304  17.391   6.642
  189ETHO    C215888   7.172  17.233   6.723
  189ETHO   H2115889   7.156  17.264   6.828
  189ETHO   H2315890   7.259  17.165   6.713
  190ETHO    O115891   7.057  17.165   6.676
  190ETHO    C115892   7.055  17.041   6.741
  190ETHO   H1115893   7.046  17.066   6.849
  190ETHO   H1315894   7.137  16.969   6.720
  190ETHO    C215895   6.924  16.961   6.695
  190ETHO   H2115896   6.961  16.923   6.598
  190ETHO   H2315897   6.839  17.033   6.684
  191ETHO    O115898   6.882  16.851   6.784
  191ETHO    C115899   6.837  16.744   6.704
  191ETHO   H1115900   6.733  16.759   6.667
  191ETHO   H1315901   6.903  16.735   6.615
  191ETHO    C215902   6.868  16.602   6.764
  191ETHO   H2115903   6.979  16.601   6.775
  191ETHO   H2315904   6.847  16.517   6.696
  192ETHO    O115905   6.811  16.563   6.891
  192ETHO    C115906   6.866  16.443   6.937
  192ETHO   H1115907   6.974  16.462   6.956
  192ETHO   H1315908   6.858  16.376   6.849
  192ETHO    C215909   6.788  16.404   7.063
  192ETHO   H2115910   6.825  16.303   7.092
  192ETHO   H2315911   6.679  16.395   7.044
  193ETHO    O115912   6.805  16.504   7.168
  193ETHO    C115913   6.754  16.453   7.288
  193ETHO   H1115914   6.647  16.427   7.273
  193ETHO   H1315915   6.805  16.357   7.310
  193ETHO    C215916   6.763  16.553   7.411
  193ETHO   H2115917   6.867  16.592   7.403
  193ETHO   H2315918   6.735  16.486   7.495
  194ETHO    O115919   6.662  16.653   7.388
  194ETHO    C115920   6.652  16.720   7.510
  194ETHO   H1115921   6.752  16.759   7.540
  194ETHO   H1315922   6.603  16.658   7.587
  194ETHO    C215923   6.562  16.846   7.505
  194ETHO   H2115924   6.553  16.891   7.607
  194ETHO   H2315925   6.461  16.808   7.478
  195ETHO    O115926   6.623  16.928   7.414
  195ETHO    C115927   6.545  17.040   7.374
  195ETHO   H1115928   6.453  16.999   7.327
  195ETHO   H1315929   6.515  17.088   7.470
  195ETHO    C215930   6.611  17.126   7.265
  195ETHO   H2115931   6.525  17.191   7.242
  195ETHO   H2315932   6.636  17.079   7.168
  196ETHO    O115933   6.710  17.208   7.329
  196ETHO    C115934   6.819  17.250   7.243
  196ETHO   H1115935   6.869  17.156   7.210
  196ETHO   H1315936   6.779  17.303   7.154
  196ETHO    C215937   6.908  17.333   7.329
  196ETHO   H2115938   6.840  17.406   7.378
  196ETHO   H2315939   6.979  17.380   7.258
  197ETHO    O115940   6.987  17.251   7.418
  197ETHO    C115941   7.077  17.325   7.496
  197ETHO   H1115942   7.155  17.366   7.428
  197ETHO   H1315943   7.010  17.392   7.554
  197ETHO    C215944   7.153  17.228   7.586
  197ETHO   H2115945   7.182  17.135   7.531
  197ETHO   H2315946   7.095  17.202   7.677
  198ETHO    O115947   7.281  17.287   7.606
  198ETHO    C115948   7.346  17.224   7.715
  198ETHO   H1115949   7.429  17.294   7.740
  198ETHO   H1315950   7.289  17.216   7.810
  198ETHO    C215951   7.397  17.073   7.682
  198ETHO   H2115952   7.312  17.019   7.638
  198ETHO   H2315953   7.425  17.027   7.779
  199ETHO    O115954   7.509  17.063   7.602
  199ETHO    C115955   7.550  16.931   7.570
  199ETHO   H1115956   7.464  16.875   7.528
  199ETHO   H1315957   7.571  16.876   7.664
  199ETHO    C215958   7.674  16.937   7.482
  199ETHO   H2115959   7.641  17.000   7.397
  199ETHO   H2315960   7.685  16.834   7.443
  200ETHO    O115961   7.787  16.991   7.545
  200ETHO    C115962   7.909  16.983   7.463
  200ETHO   H1115963   7.886  17.028   7.363
  200ETHO   H1315964   7.999  17.037   7.500
  200ETHO    C215965   7.963  16.846   7.429
  200ETHO   H2115966   8.039  16.852   7.348
  200ETHO   H2315967   7.887  16.779   7.383
  201ETHO    O115968   8.017  16.761   7.534
  201ETHO    C115969   8.091  16.650   7.487
  201ETHO   H1115970   8.184  16.689   7.440
  201ETHO   H1315971   8.020  16.603   7.416
  201ETHO    C215972   8.112  16.570   7.615
  201ETHO   H2115973   8.021  16.570   7.677
  201ETHO   H2315974   8.200  16.612   7.668
  202ETHO    O115975   8.153  16.433   7.583
  202ETHO    C115976   8.177  16.348   7.694
  202ETHO   H1115977   8.224  16.405   7.776
  202ETHO   H1315978   8.074  16.316   7.724
  202ETHO    C215979   8.263  16.225   7.666
  202ETHO   H2115980   8.229  16.173   7.574
  202ETHO   H2315981   8.269  16.160   7.756
  203ETHO    O115982   8.401  16.256   7.633
  203ETHO    C115983   8.471  16.131   7.606
  203ETHO   H1115984   8.415  16.088   7.520
  203ETHO   H1315985   8.464  16.060   7.691
  203ETHO    C215986   8.621  16.158   7.586
  203ETHO   H2115987   8.639  16.254   7.534
  203ETHO   H2315988   8.659  16.076   7.521
  204ETHO    O115989   8.701  16.155   7.709
  204ETHO    C115990   8.842  16.159   7.683
  204ETHO   H1115991   8.872  16.072   7.621
  204ETHO   H1315992   8.861  16.233   7.603
  204ETHO    C215993   8.932  16.161   7.809
  204ETHO   H2115994   9.039  16.162   7.778
  204ETHO   H2315995   8.918  16.070   7.871
  205ETHO    O115996   8.909  16.273   7.890
  205ETHO    C115997   9.032  16.334   7.932
  205ETHO   H1115998   9.094  16.361   7.844
  205ETHO   H1315999   9.096  16.261   7.987
  205ETHO    C216000   8.999  16.453   8.028
  205ETHO   H2116001   8.923  16.516   7.977
  205ETHO   H2316002   9.078  16.530   8.044
  206ETHO    O116003   8.939  16.432   8.156
  206ETHO    C116004   9.030  16.412   8.258
  206ETHO   H1116005   9.126  16.466   8.250
  206ETHO   H1316006   8.972  16.449   8.346
  206ETHO    C216007   9.056  16.263   8.286
  206ETHO   H2116008   8.954  16.218   8.286
  206ETHO   H2316009   9.135  16.225   8.218
  207ETHO    O116010   9.089  16.258   8.424
  207ETHO    C116011   9.230  16.270   8.445
  207ETHO   H1116012   9.257  16.373   8.411
  207ETHO   H1316013   9.277  16.205   8.368
  207ETHO    C216014   9.275  16.232   8.585
  207ETHO   H2116015   9.379  16.193   8.590
  207ETHO   H2316016   9.208  16.147   8.608
  208ETHO    O116017   9.251  16.339   8.683
  208ETHO    C116018   9.366  16.419   8.697
  208ETHO   H1116019   9.420  16.374   8.783
  208ETHO   H1316020   9.427  16.416   8.605
  208ETHO    C216021   9.335  16.565   8.718
  208ETHO   H2116022   9.265  16.608   8.643
  208ETHO   H2316023   9.424  16.631   8.712
  209ETHO    O116024   9.269  16.571   8.847
  209ETHO    C116025   9.276  16.696   8.913
  209ETHO   H1116026   9.201  16.765   8.870
  209ETHO   H1316027   9.374  16.746   8.903
  209ETHO    C216028   9.244  16.686   9.067
  209ETHO   H2116029   9.157  16.617   9.072
  209ETHO   H2316030   9.220  16.789   9.102
  210ETHO    O116031   9.348  16.641   9.149
  210ETHO    C116032   9.416  16.526   9.105
  210ETHO   H1116033   9.366  16.448   9.043
  210ETHO   H1316034   9.502  16.558   9.042
  210ETHO    C216035   9.482  16.445   9.214
  210ETHO   H2116036   9.538  16.361   9.168
  210ETHO   H2316037   9.400  16.396   9.271
  211ETHO    O116038   9.574  16.519   9.294
  211ETHO    C116039   9.509  16.593   9.398
  211ETHO   H1116040   9.402  16.605   9.373
  211ETHO   H1316041   9.512  16.532   9.490
  211ETHO    C216042   9.580  16.731   9.406
  211ETHO   H2116043   9.534  16.807   9.472
  211ETHO   H2316044   9.568  16.782   9.308
  212ETHO    O116045   9.720  16.710   9.436
  212ETHO    C116046   9.779  16.810   9.519
  212ETHO   H1116047   9.770  16.905   9.462
  212ETHO   H1316048   9.737  16.807   9.622
  212ETHO    C216049   9.929  16.780   9.517
  212ETHO   H2116050   9.998  16.856   9.559
  212ETHO   H2316051   9.950  16.758   9.410
  213ETHO    O116052   9.948  16.653   9.584
  213ETHO    C116053  10.080  16.631   9.631
  213ETHO   H1116054  10.144  16.653   9.544
  213ETHO   H1316055  10.095  16.702   9.715
  213ETHO    C216056  10.112  16.493   9.696
  213ETHO   H2116057  10.024  16.471   9.760
  213ETHO   H2316058  10.207  16.501   9.753
  214ETHO    O116059  10.120  16.381   9.606
  214ETHO    C116060  10.141  16.260   9.670
  214ETHO   H1116061  10.046  16.238   9.723
  214ETHO   H1316062  10.223  16.265   9.746
  214ETHO    C216063  10.164  16.149   9.571
  214ETHO   H2116064  10.096  16.160   9.484
  214ETHO   H2316065  10.163  16.053   9.627
  215ETHO    O116066  10.295  16.152   9.517
  215ETHO    C116067  10.335  16.043   9.441
  215ETHO   H1116068  10.257  16.022   9.364
  215ETHO   H1316069  10.422  16.084   9.385
  215ETHO    C216070  10.372  15.923   9.528
  215ETHO   H2116071  10.425  15.959   9.619
  215ETHO   H2316072  10.446  15.860   9.474
  216ETHO    O116073  10.262  15.840   9.568
  216ETHO    C116074  10.285  15.733   9.667
  216ETHO   H1116075  10.272  15.761   9.774
  216ETHO   H1316076  10.386  15.687   9.665
  216ETHO    C216077  10.181  15.624   9.653
  216ETHO   H2116078  10.186  15.578   9.552
  216ETHO   H2316079  10.084  15.677   9.655
  217ETHO    O116080  10.172  15.518   9.755
  217ETHO    C116081  10.271  15.423   9.747
  217ETHO   H1116082  10.283  15.381   9.645
  217ETHO   H1316083  10.365  15.475   9.776
  217ETHO    C216084  10.249  15.307   9.844
  217ETHO   H2116085  10.311  15.220   9.814
  217ETHO   H2316086  10.141  15.282   9.843
  218ETHO    O116087  10.278  15.346   9.975
  218ETHO    C116088  10.233  15.255  10.079
  218ETHO   H1116089  10.319  15.203  10.127
  218ETHO   H1316090  10.164  15.180  10.035
  218ETHO    C216091  10.143  15.325  10.179
  218ETHO   H2116092  10.062  15.251  10.197
  218ETHO   H2316093  10.111  15.421  10.132
  219ETHO    O116094  10.211  15.333  10.302
  219ETHO    C116095  10.147  15.418  10.399
  219ETHO   H1116096  10.217  15.476  10.464
  219ETHO   H1316097  10.093  15.504  10.354
  219ETHO    C216098  10.045  15.346  10.487
  219ETHO   H2116099   9.984  15.290  10.414
  219ETHO   H2316100   9.983  15.418  10.546
  220ETHO    O116101  10.105  15.254  10.584
  220ETHO    C116102  10.065  15.117  10.558
  220ETHO   H1116103   9.956  15.122  10.541
  220ETHO   H1316104  10.079  15.072  10.659
  220ETHO    C216105  10.119  15.043  10.431
  220ETHO   H2116106  10.228  15.065  10.429
  220ETHO   H2316107  10.061  15.071  10.340
  221ETHO    O116108  10.109  14.903  10.452
  221ETHO    C116109  10.159  14.824  10.343
  221ETHO   H1116110  10.262  14.854  10.316
  221ETHO   H1316111  10.171  14.721  10.382
  221ETHO    C216112  10.070  14.816  10.221
  221ETHO   H2116113  10.071  14.912  10.165
  221ETHO   H2316114   9.973  14.792  10.268
  222ETHO    O116115  10.122  14.707  10.145
  222ETHO    C116116  10.021  14.659  10.058
  222ETHO   H1116117   9.938  14.621  10.121
  222ETHO   H1316118   9.997  14.744   9.991
  222ETHO    C216119  10.074  14.536   9.980
  222ETHO   H2116120  10.124  14.463  10.047
  222ETHO   H2316121  10.142  14.569   9.898
  223ETHO    O116122   9.964  14.467   9.928
  223ETHO    C116123   9.958  14.499   9.781
  223ETHO   H1116124   9.946  14.609   9.770
  223ETHO   H1316125  10.046  14.470   9.719
  223ETHO    C216126   9.841  14.449   9.698
  223ETHO   H2116127   9.741  14.465   9.744
  223ETHO   H2316128   9.835  14.340   9.678
  224ETHO    O116129   9.841  14.505   9.568
  224ETHO    C116130   9.731  14.456   9.489
  224ETHO   H1116131   9.729  14.346   9.505
  224ETHO   H1316132   9.635  14.488   9.534
  224ETHO    C216133   9.747  14.502   9.336
  224ETHO   H2116134   9.675  14.440   9.278
  224ETHO   H2316135   9.853  14.480   9.314
  225ETHO    O116136   9.714  14.638   9.335
  225ETHO    C116137   9.717  14.692   9.201
  225ETHO   H1116138   9.661  14.618   9.140
  225ETHO   H1316139   9.817  14.703   9.154
  225ETHO    C216140   9.659  14.834   9.191
  225ETHO   H2116141   9.560  14.835   9.241
  225ETHO   H2316142   9.638  14.869   9.088
  226ETHO    O116143   9.744  14.920   9.270
  226ETHO    C116144   9.761  15.051   9.208
  226ETHO   H1116145   9.820  15.038   9.115
  226ETHO   H1316146   9.662  15.091   9.178
  226ETHO    C216147   9.830  15.154   9.301
  226ETHO   H2116148   9.854  15.233   9.228
  226ETHO   H2316149   9.915  15.099   9.347
  227ETHO    O116150   9.745  15.203   9.403
  227ETHO    C116151   9.644  15.290   9.357
  227ETHO   H1116152   9.570  15.233   9.296
  227ETHO   H1316153   9.699  15.364   9.295
  227ETHO    C216154   9.564  15.363   9.466
  227ETHO   H2116155   9.546  15.298   9.554
  227ETHO   H2316156   9.470  15.405   9.426
  228ETHO    O116157   9.653  15.467   9.512
  228ETHO    C116158   9.579  15.576   9.554
  228ETHO   H1116159   9.483  15.539   9.594
  228ETHO   H1316160   9.630  15.608   9.647
  228ETHO    C216161   9.565  15.686   9.451
  228ETHO   H2116162   9.665  15.720   9.416
  228ETHO   H2316163   9.524  15.774   9.505
  229ETHO    O116164   9.497  15.646   9.334
  229ETHO    C116165   9.458  15.768   9.259
  229ETHO   H1116166   9.551  15.824   9.238
  229ETHO   H1316167   9.391  15.833   9.321
  229ETHO    C216168   9.388  15.732   9.130
  229ETHO   H2116169   9.295  15.688   9.172
  229ETHO   H2316170   9.425  15.648   9.069
  230ETHO    O116171   9.372  15.853   9.055
  230ETHO    C116172   9.479  15.889   8.973
  230ETHO   H1116173   9.476  15.999   8.953
  230ETHO   H1316174   9.576  15.864   9.020
  230ETHO    C216175   9.473  15.818   8.836
  230ETHO   H2116176   9.430  15.718   8.856
  230ETHO   H2316177   9.579  15.799   8.806
  231ETHO    O116178   9.384  15.877   8.734
  231ETHO    C116179   9.371  15.791   8.622
  231ETHO   H1116180   9.307  15.708   8.660
  231ETHO   H1316181   9.473  15.755   8.597
  231ETHO    C216182   9.298  15.855   8.494
  231ETHO   H2116183   9.209  15.913   8.525
  231ETHO   H2316184   9.267  15.777   8.421
  232ETHO    O116185   9.376  15.957   8.433
  232ETHO    C116186   9.432  15.917   8.307
  232ETHO   H1116187   9.520  15.854   8.334
  232ETHO   H1316188   9.362  15.858   8.245
  232ETHO    C216189   9.470  16.034   8.218
  232ETHO   H2116190   9.531  15.993   8.135
  232ETHO   H2316191   9.537  16.101   8.276
  233ETHO    O116192   9.361  16.101   8.150
  233ETHO    C116193   9.396  16.207   8.062
  233ETHO   H1116194   9.469  16.172   7.986
  233ETHO   H1316195   9.303  16.239   8.010
  233ETHO    C216196   9.458  16.330   8.129
  233ETHO   H2116197   9.563  16.307   8.155
  233ETHO   H2316198   9.397  16.346   8.221
  234ETHO    O116199   9.453  16.444   8.043
  234ETHO    C116200   9.545  16.453   7.936
  234ETHO   H1116201   9.547  16.365   7.868
  234ETHO   H1316202   9.516  16.540   7.872
  234ETHO    C216203   9.690  16.477   7.976
  234ETHO   H2116204   9.698  16.528   8.074
  234ETHO   H2316205   9.741  16.539   7.899
  235ETHO    O116206   9.759  16.350   7.996
  235ETHO    C116207   9.901  16.363   8.013
  235ETHO   H1116208   9.931  16.440   7.938
  235ETHO   H1316209   9.934  16.402   8.112
  235ETHO    C216210   9.974  16.232   7.986
  235ETHO   H2116211   9.925  16.156   8.052
  235ETHO   H2316212  10.079  16.249   8.016
  236ETHO    O116213   9.971  16.189   7.849
  236ETHO    C116214  10.019  16.061   7.828
  236ETHO   H1116215   9.961  16.024   7.741
  236ETHO   H1316216   9.990  15.992   7.910
  236ETHO    C216217  10.172  16.046   7.817
  236ETHO   H2116218  10.212  16.110   7.735
  236ETHO   H2316219  10.188  15.941   7.783
  237ETHO    O116220  10.229  16.068   7.939
  237ETHO    C116221  10.376  16.062   7.934
  237ETHO   H1116222  10.422  16.106   7.844
  237ETHO   H1316223  10.418  16.140   8.001
  237ETHO    C216224  10.444  15.925   7.954
  237ETHO   H2116225  10.427  15.871   8.050
  237ETHO   H2316226  10.553  15.944   7.948
  238ETHO    O116227  10.401  15.829   7.855
  238ETHO    C116228  10.462  15.697   7.868
  238ETHO   H1116229  10.403  15.635   7.939
  238ETHO   H1316230  10.565  15.703   7.908
  238ETHO    C216231  10.471  15.623   7.732
  238ETHO   H2116232  10.550  15.546   7.745
  238ETHO   H2316233  10.505  15.680   7.643
  239ETHO    O116234  10.342  15.560   7.693
  239ETHO    C116235  10.233  15.659   7.686
  239ETHO   H1116236  10.187  15.679   7.785
  239ETHO   H1316237  10.272  15.752   7.640
  239ETHO    C216238  10.126  15.615   7.589
  239ETHO   H2116239  10.109  15.511   7.625
  239ETHO   H2316240  10.033  15.673   7.605
  240ETHO    O116241  10.152  15.612   7.454
  240ETHO    C116242  10.037  15.567   7.385
  240ETHO   H1116243   9.987  15.493   7.451
  240ETHO   H1316244  10.060  15.502   7.297
  240ETHO    C216245   9.939  15.672   7.331
  240ETHO   H2116246   9.915  15.737   7.418
  240ETHO   H2316247   9.847  15.628   7.287
  241ETHO    O116248   9.995  15.762   7.241
  241ETHO    C116249   9.909  15.871   7.207
  241ETHO   H1116250   9.816  15.826   7.165
  241ETHO   H1316251   9.903  15.931   7.300
  241ETHO    C216252   9.964  15.966   7.092
  241ETHO   H2116253  10.064  15.999   7.128
  241ETHO   H2316254   9.900  16.051   7.060
  242ETHO    O116255   9.980  15.898   6.967
  242ETHO    C116256  10.114  15.901   6.914
  242ETHO   H1116257  10.184  15.862   6.991
  242ETHO   H1316258  10.144  16.008   6.903
  242ETHO    C216259  10.136  15.836   6.778
  242ETHO   H2116260  10.108  15.729   6.782
  242ETHO   H2316261  10.242  15.846   6.745
  243ETHO    O116262  10.056  15.904   6.679
  243ETHO    C116263  10.116  15.899   6.553
  243ETHO   H1116264  10.221  15.936   6.554
  243ETHO   H1316265  10.111  15.795   6.513
  243ETHO    C216266  10.051  15.991   6.441
  243ETHO   H2116267   9.949  15.953   6.417
  243ETHO   H2316268  10.118  15.978   6.353
  244ETHO    O116269  10.057  16.130   6.472
  244ETHO    C116270   9.998  16.202   6.366
  244ETHO   H1116271   9.949  16.295   6.403
  244ETHO   H1316272   9.919  16.150   6.308
  244ETHO    C216273  10.098  16.264   6.269
  244ETHO   H2116274  10.148  16.177   6.220
  244ETHO   H2316275  10.172  16.334   6.314
  245ETHO    O116276  10.034  16.339   6.167
  245ETHO    C116277  10.114  16.384   6.055
  245ETHO   H1116278  10.143  16.486   6.090
  245ETHO   H1316279  10.202  16.317   6.046
  245ETHO    C216280  10.034  16.382   5.929
  245ETHO   H2116281   9.988  16.284   5.910
  245ETHO   H2316282  10.108  16.384   5.846
  246ETHO    O116283   9.948  16.500   5.919
  246ETHO    C116284   9.868  16.488   5.802
  246ETHO   H1116285   9.795  16.407   5.825
  246ETHO   H1316286   9.923  16.444   5.716
  246ETHO    C216287   9.802  16.625   5.774
  246ETHO   H2116288   9.776  16.626   5.666
  246ETHO   H2316289   9.877  16.707   5.787
  247ETHO    O116290   9.694  16.653   5.859
  247ETHO    C116291   9.583  16.569   5.831
  247ETHO   H1116292   9.605  16.496   5.749
  247ETHO   H1316293   9.541  16.527   5.924
  247ETHO    C216294   9.476  16.665   5.784
  247ETHO   H2116295   9.384  16.609   5.758
  247ETHO   H2316296   9.454  16.725   5.875
  248ETHO    O116297   9.514  16.742   5.670
  248ETHO    C116298   9.400  16.807   5.607
  248ETHO   H1116299   9.319  16.734   5.583
  248ETHO   H1316300   9.353  16.897   5.653
  248ETHO    C216301   9.450  16.844   5.468
  248ETHO   H2116302   9.351  16.867   5.424
  248ETHO   H2316303   9.489  16.761   5.405
  249ETHO    O116304   9.523  16.971   5.456
  249ETHO    C116305   9.542  16.998   5.316
  249ETHO   H1116306   9.583  16.909   5.263
  249ETHO   H1316307   9.441  17.017   5.275
  249ETHO    C216308   9.631  17.121   5.293
  249ETHO   H2116309   9.665  17.135   5.188
  249ETHO   H2316310   9.725  17.120   5.352
  250ETHO    O116311   9.561  17.242   5.322
  250ETHO    C116312   9.649  17.360   5.316
  250ETHO   H1116313   9.610  17.441   5.382
  250ETHO   H1316314   9.750  17.326   5.347
  250ETHO    C216315   9.655  17.436   5.175
  250ETHO   H2116316   9.691  17.361   5.103
  250ETHO   H2316317   9.721  17.524   5.186
  251ETHO    O116318   9.529  17.480   5.126
  251ETHO    C116319   9.481  17.397   5.027
  251ETHO   H1116320   9.455  17.302   5.077
  251ETHO   H1316321   9.555  17.374   4.947
  251ETHO    C216322   9.349  17.446   4.971
  251ETHO   H2116323   9.285  17.460   5.061
  251ETHO   H2316324   9.299  17.372   4.905
  252ETHO    O116325   9.349  17.564   4.891
  252ETHO    C116326   9.216  17.614   4.881
  252ETHO   H1116327   9.159  17.531   4.835
  252ETHO   H1316328   9.169  17.637   4.979
  252ETHO    C216329   9.209  17.740   4.792
  252ETHO   H2116330   9.103  17.767   4.771
  252ETHO   H2316331   9.264  17.706   4.701
  253ETHO    O116332   9.274  17.855   4.849
  253ETHO    C116333   9.196  17.977   4.845
  253ETHO   H1116334   9.146  17.981   4.745
  253ETHO   H1316335   9.265  18.064   4.844
  253ETHO    C216336   9.091  17.989   4.949
  253ETHO   H2116337   9.064  18.096   4.955
  253ETHO   H2316338   9.133  17.974   5.051
  254ETHO    O116339   8.972  17.912   4.930
  254ETHO    C116340   8.946  17.836   5.042
  254ETHO   H1116341   9.034  17.790   5.091
  254ETHO   H1316342   8.898  17.902   5.118
  254ETHO    C216343   8.850  17.714   5.004
  254ETHO   H2116344   8.880  17.668   4.907
  254ETHO   H2316345   8.749  17.749   4.974
  255ETHO    O116346   8.834  17.627   5.115
  255ETHO    C116347   8.727  17.535   5.099
  255ETHO   H1116348   8.743  17.467   5.013
  255ETHO   H1316349   8.629  17.585   5.115
  255ETHO    C216350   8.727  17.449   5.229
  255ETHO   H2116351   8.826  17.398   5.227
  255ETHO   H2316352   8.642  17.378   5.219
  256ETHO    O116353   8.721  17.537   5.342
  256ETHO    C116354   8.688  17.468   5.458
  256ETHO   H1116355   8.587  17.429   5.430
  256ETHO   H1316356   8.758  17.383   5.470
  256ETHO    C216357   8.691  17.543   5.588
  256ETHO   H2116358   8.612  17.512   5.660
  256ETHO   H2316359   8.651  17.646   5.572
  257ETHO    O116360   8.824  17.542   5.635
  257ETHO    C116361   8.831  17.639   5.742
  257ETHO   H1116362   8.752  17.621   5.817
  257ETHO   H1316363   8.823  17.744   5.706
  257ETHO    C216364   8.961  17.636   5.829
  257ETHO   H2116365   8.952  17.703   5.916
  257ETHO   H2316366   9.051  17.653   5.766
  258ETHO    O116367   8.972  17.509   5.892
  258ETHO    C116368   9.109  17.487   5.932
  258ETHO   H1116369   9.184  17.499   5.850
  258ETHO   H1316370   9.131  17.561   6.011
  258ETHO    C216371   9.118  17.341   5.982
  258ETHO   H2116372   9.040  17.331   6.060
  258ETHO   H2316373   9.215  17.316   6.029
  259ETHO    O116374   9.083  17.250   5.873
  259ETHO    C116375   9.082  17.114   5.916
  259ETHO   H1116376   9.077  17.096   6.025
  259ETHO   H1316377   9.001  17.064   5.858
  259ETHO    C216378   9.215  17.060   5.865
  259ETHO   H2116379   9.234  17.087   5.758
  259ETHO   H2316380   9.214  16.949   5.863
  260ETHO    O116381   9.322  17.097   5.952
  260ETHO    C116382   9.350  16.995   6.055
  260ETHO   H1116383   9.249  16.991   6.100
  260ETHO   H1316384   9.359  16.895   6.007
  260ETHO    C216385   9.455  17.037   6.160
  260ETHO   H2116386   9.414  17.002   6.256
  260ETHO   H2316387   9.478  17.145   6.167
  261ETHO    O116388   9.575  16.971   6.135
  261ETHO    C116389   9.652  17.032   6.033
  261ETHO   H1116390   9.604  17.038   5.933
  261ETHO   H1316391   9.690  17.129   6.072
  261ETHO    C216392   9.782  16.953   6.027
  261ETHO   H2116393   9.757  16.851   5.991
  261ETHO   H2316394   9.820  16.944   6.131
  262ETHO    O116395   9.887  17.005   5.949
  262ETHO    C116396  10.006  16.922   5.951
  262ETHO   H1116397   9.972  16.817   5.943
  262ETHO   H1316398  10.055  16.934   6.049
  262ETHO    C216399  10.114  16.965   5.846
  262ETHO   H2116400  10.199  16.893   5.856
  262ETHO   H2316401  10.141  17.069   5.874
  263ETHO    O116402  10.043  16.959   5.718
  263ETHO    C116403  10.113  17.025   5.613
  263ETHO   H1116404  10.212  16.978   5.594
  263ETHO   H1316405  10.128  17.133   5.638
  263ETHO    C216406  10.039  17.039   5.479
  263ETHO   H2116407  10.104  17.086   5.402
  263ETHO   H2316408   9.936  17.077   5.495
  264ETHO    O116409  10.031  16.898   5.448
  264ETHO    C116410   9.947  16.868   5.343
  264ETHO   H1116411   9.980  16.928   5.255
  264ETHO   H1316412   9.844  16.896   5.372
  264ETHO    C216413   9.941  16.714   5.309
  264ETHO   H2116414  10.049  16.688   5.301
  264ETHO   H2316415   9.890  16.701   5.211
  265ETHO    O116416   9.876  16.657   5.422
  265ETHO    C116417   9.834  16.523   5.407
  265ETHO   H1116418   9.911  16.453   5.367
  265ETHO   H1316419   9.811  16.480   5.506
  265ETHO    C216420   9.697  16.502   5.327
  265ETHO   H2116421   9.628  16.584   5.359
  265ETHO   H2316422   9.645  16.408   5.355
  265ETHO    OZ16423   9.711  16.505   5.184
  265ETHO   HZ116424   9.621  16.496   5.150
    1ETHO    O116425  18.955  19.208  13.061
    1ETHO   HO116426  19.030  19.157  13.029
    1ETHO    C116427  18.877  19.173  12.949
    1ETHO   H1116428  18.929  19.214  12.860
    1ETHO   H1316429  18.776  19.218  12.960
    1ETHO    C216430  18.866  19.017  12.937
    1ETHO   H2116431  18.797  18.996  12.852
    1ETHO   H2316432  18.819  18.978  13.030
    2ETHO    O116433  18.978  18.957  12.909
    2ETHO    C116434  18.965  18.815  12.922
    2ETHO   H1116435  18.920  18.793  13.021
    2ETHO   H1316436  18.899  18.791  12.836
    2ETHO    C216437  19.099  18.741  12.902
    2ETHO   H2116438  19.159  18.771  12.814
    2ETHO   H2316439  19.077  18.632  12.898
    3ETHO    O116440  19.174  18.763  13.023
    3ETHO    C116441  19.297  18.691  13.032
    3ETHO   H1116442  19.355  18.717  12.940
    3ETHO   H1316443  19.278  18.582  13.020
    3ETHO    C216444  19.371  18.720  13.159
    3ETHO   H2116445  19.375  18.830  13.173
    3ETHO   H2316446  19.475  18.682  13.154
    4ETHO    O116447  19.307  18.662  13.275
    4ETHO    C116448  19.403  18.640  13.382
    4ETHO   H1116449  19.459  18.546  13.360
    4ETHO   H1316450  19.467  18.729  13.367
    4ETHO    C216451  19.348  18.614  13.521
    4ETHO   H2116452  19.300  18.713  13.528
    4ETHO   H2316453  19.439  18.611  13.585
    5ETHO    O116454  19.250  18.514  13.537
    5ETHO    C116455  19.197  18.520  13.668
    5ETHO   H1116456  19.288  18.503  13.728
    5ETHO   H1316457  19.158  18.620  13.698
    5ETHO    C216458  19.096  18.407  13.689
    5ETHO   H2116459  19.087  18.400  13.800
    5ETHO   H2316460  19.139  18.307  13.668
    6ETHO    O116461  18.971  18.418  13.620
    6ETHO    C116462  18.888  18.295  13.612
    6ETHO   H1116463  18.935  18.221  13.543
    6ETHO   H1316464  18.875  18.249  13.712
    6ETHO    C216465  18.755  18.340  13.563
    6ETHO   H2116466  18.752  18.428  13.495
    6ETHO   H2316467  18.689  18.359  13.650
    7ETHO    O116468  18.689  18.228  13.502
    7ETHO    C116469  18.578  18.267  13.418
    7ETHO   H1116470  18.537  18.356  13.471
    7ETHO   H1316471  18.622  18.287  13.319
    7ETHO    C216472  18.462  18.159  13.422
    7ETHO   H2116473  18.363  18.208  13.420
    7ETHO   H2316474  18.466  18.105  13.519
    8ETHO    O116475  18.478  18.067  13.322
    8ETHO    C116476  18.435  18.113  13.193
    8ETHO   H1116477  18.503  18.192  13.154
    8ETHO   H1316478  18.337  18.166  13.200
    8ETHO    C216479  18.424  17.988  13.098
    8ETHO   H2116480  18.529  17.952  13.107
    8ETHO   H2316481  18.398  18.014  12.994
    9ETHO    O116482  18.322  17.898  13.128
    9ETHO    C116483  18.367  17.760  13.113
    9ETHO   H1116484  18.443  17.744  13.034
    9ETHO   H1316485  18.415  17.730  13.209
    9ETHO    C216486  18.251  17.669  13.069
    9ETHO   H2116487  18.210  17.686  12.967
    9ETHO   H2316488  18.177  17.695  13.147
   10ETHO    O116489  18.271  17.528  13.070
   10ETHO    C116490  18.154  17.447  13.051
   10ETHO   H1116491  18.060  17.502  13.072
   10ETHO   H1316492  18.147  17.365  13.126
   10ETHO    C216493  18.131  17.386  12.904
   10ETHO   H2116494  18.041  17.322  12.895
   10ETHO   H2316495  18.219  17.321  12.886
   11ETHO    O116496  18.105  17.492  12.814
   11ETHO    C116497  18.128  17.458  12.679
   11ETHO   H1116498  18.226  17.404  12.681
   11ETHO   H1316499  18.051  17.387  12.642
   11ETHO    C216500  18.145  17.587  12.590
   11ETHO   H2116501  18.230  17.648  12.628
   11ETHO   H2316502  18.163  17.555  12.485
   12ETHO    O116503  18.022  17.665  12.601
   12ETHO    C116504  17.992  17.737  12.477
   12ETHO   H1116505  17.934  17.671  12.409
   12ETHO   H1316506  18.092  17.753  12.431
   12ETHO    C216507  17.909  17.852  12.526
   12ETHO   H2116508  17.845  17.813  12.607
   12ETHO   H2316509  17.848  17.895  12.444
   13ETHO    O116510  17.982  17.967  12.578
   13ETHO    C116511  17.907  18.088  12.592
   13ETHO   H1116512  17.847  18.117  12.503
   13ETHO   H1316513  17.828  18.066  12.667
   13ETHO    C216514  17.995  18.196  12.643
   13ETHO   H2116515  18.053  18.152  12.727
   13ETHO   H2316516  17.932  18.276  12.687
   14ETHO    O116517  18.091  18.250  12.549
   14ETHO    C116518  18.178  18.340  12.598
   14ETHO   H1116519  18.272  18.346  12.539
   14ETHO   H1316520  18.212  18.309  12.699
   14ETHO    C216521  18.116  18.482  12.600
   14ETHO   H2116522  18.068  18.505  12.502
   14ETHO   H2316523  18.189  18.565  12.611
   15ETHO    O116524  18.024  18.510  12.705
   15ETHO    C116525  18.093  18.536  12.824
   15ETHO   H1116526  18.147  18.443  12.850
   15ETHO   H1316527  18.159  18.623  12.801
   15ETHO    C216528  17.999  18.564  12.938
   15ETHO   H2116529  17.932  18.476  12.952
   15ETHO   H2316530  18.055  18.578  13.033
   16ETHO    O116531  17.917  18.676  12.921
   16ETHO    C116532  17.834  18.704  13.034
   16ETHO   H1116533  17.898  18.704  13.125
   16ETHO   H1316534  17.807  18.812  13.043
   16ETHO    C216535  17.714  18.610  13.033
   16ETHO   H2116536  17.656  18.605  12.939
   16ETHO   H2316537  17.637  18.662  13.094
   17ETHO    O116538  17.735  18.480  13.077
   17ETHO    C116539  17.614  18.397  13.069
   17ETHO   H1116540  17.534  18.432  13.137
   17ETHO   H1316541  17.576  18.404  12.964
   17ETHO    C216542  17.632  18.244  13.096
   17ETHO   H2116543  17.529  18.204  13.081
   17ETHO   H2316544  17.670  18.231  13.199
   18ETHO    O116545  17.722  18.185  12.998
   18ETHO    C116546  17.854  18.175  13.050
   18ETHO   H1116547  17.925  18.182  12.965
   18ETHO   H1316548  17.880  18.262  13.116
   18ETHO    C216549  17.877  18.049  13.131
   18ETHO   H2116550  17.986  18.048  13.153
   18ETHO   H2316551  17.841  17.962  13.071
   19ETHO    O116552  17.807  18.055  13.256
   19ETHO    C116553  17.753  17.932  13.302
   19ETHO   H1116554  17.769  17.917  13.411
   19ETHO   H1316555  17.786  17.840  13.249
   19ETHO    C216556  17.595  17.923  13.297
   19ETHO   H2116557  17.559  17.819  13.307
   19ETHO   H2316558  17.566  17.959  13.196
   20ETHO    O116559  17.544  18.007  13.403
   20ETHO    C116560  17.403  18.006  13.409
   20ETHO   H1116561  17.355  18.044  13.316
   20ETHO   H1316562  17.383  17.897  13.420
   20ETHO    C216563  17.342  18.074  13.532
   20ETHO   H2116564  17.402  18.051  13.623
   20ETHO   H2316565  17.248  18.022  13.559
   21ETHO    O116566  17.309  18.222  13.532
   21ETHO    C116567  17.428  18.296  13.496
   21ETHO   H1116568  17.446  18.284  13.387
   21ETHO   H1316569  17.510  18.257  13.559
   21ETHO    C216570  17.412  18.440  13.538
   21ETHO   H2116571  17.381  18.438  13.644
   21ETHO   H2316572  17.340  18.491  13.471
   22ETHO    O116573  17.536  18.513  13.546
   22ETHO    C116574  17.618  18.492  13.426
   22ETHO   H1116575  17.658  18.389  13.416
   22ETHO   H1316576  17.547  18.511  13.342
   22ETHO    C216577  17.733  18.598  13.422
   22ETHO   H2116578  17.758  18.611  13.314
   22ETHO   H2316579  17.702  18.692  13.471
   23ETHO    O116580  17.839  18.541  13.499
   23ETHO    C116581  17.968  18.597  13.463
   23ETHO   H1116582  17.965  18.702  13.497
   23ETHO   H1316583  18.000  18.598  13.356
   23ETHO    C216584  18.083  18.521  13.528
   23ETHO   H2116585  18.052  18.505  13.634
   23ETHO   H2316586  18.183  18.567  13.542
   24ETHO    O116587  18.115  18.396  13.462
   24ETHO    C116588  18.037  18.290  13.519
   24ETHO   H1116589  18.053  18.279  13.628
   24ETHO   H1316590  17.931  18.319  13.502
   24ETHO    C216591  18.059  18.156  13.455
   24ETHO   H2116592  18.082  18.167  13.347
   24ETHO   H2316593  17.965  18.105  13.486
   25ETHO    O116594  18.167  18.077  13.514
   25ETHO    C116595  18.172  17.942  13.465
   25ETHO   H1116596  18.173  17.949  13.354
   25ETHO   H1316597  18.074  17.896  13.489
   25ETHO    C216598  18.278  17.851  13.521
   25ETHO   H2116599  18.370  17.912  13.533
   25ETHO   H2316600  18.286  17.760  13.458
   26ETHO    O116601  18.251  17.808  13.656
   26ETHO    C116602  18.286  17.673  13.679
   26ETHO   H1116603  18.212  17.613  13.623
   26ETHO   H1316604  18.382  17.652  13.627
   26ETHO    C216605  18.283  17.637  13.823
   26ETHO   H2116606  18.301  17.528  13.828
   26ETHO   H2316607  18.193  17.670  13.880
   27ETHO    O116608  18.397  17.691  13.886
   27ETHO    C116609  18.520  17.623  13.880
   27ETHO   H1116610  18.602  17.681  13.928
   27ETHO   H1316611  18.544  17.602  13.773
   27ETHO    C216612  18.522  17.489  13.960
   27ETHO   H2116613  18.470  17.508  14.056
   27ETHO   H2316614  18.625  17.457  13.988
   28ETHO    O116615  18.454  17.381  13.903
   28ETHO    C116616  18.419  17.291  14.007
   28ETHO   H1116617  18.515  17.253  14.048
   28ETHO   H1316618  18.363  17.344  14.086
   28ETHO    C216619  18.329  17.176  13.968
   28ETHO   H2116620  18.280  17.210  13.875
   28ETHO   H2316621  18.256  17.151  14.048
   29ETHO    O116622  18.408  17.068  13.929
   29ETHO    C116623  18.358  16.987  13.833
   29ETHO   H1116624  18.346  17.041  13.737
   29ETHO   H1316625  18.275  16.924  13.872
   29ETHO    C216626  18.463  16.886  13.783
   29ETHO   H2116627  18.409  16.833  13.701
   29ETHO   H2316628  18.507  16.824  13.865
   30ETHO    O116629  18.567  16.965  13.735
   30ETHO    C116630  18.690  16.894  13.715
   30ETHO   H1116631  18.725  16.853  13.812
   30ETHO   H1316632  18.659  16.808  13.653
   30ETHO    C216633  18.816  16.958  13.658
   30ETHO   H2116634  18.780  16.993  13.559
   30ETHO   H2316635  18.901  16.888  13.645
   31ETHO    O116636  18.868  17.066  13.735
   31ETHO    C116637  18.972  17.134  13.663
   31ETHO   H1116638  19.062  17.075  13.690
   31ETHO   H1316639  18.956  17.134  13.553
   31ETHO    C216640  18.997  17.278  13.721
   31ETHO   H2116641  19.095  17.313  13.682
   31ETHO   H2316642  18.995  17.269  13.832
   32ETHO    O116643  18.910  17.371  13.674
   32ETHO    C116644  18.917  17.485  13.761
   32ETHO   H1116645  18.830  17.465  13.826
   32ETHO   H1316646  19.012  17.487  13.818
   32ETHO    C216647  18.910  17.600  13.667
   32ETHO   H2116648  18.865  17.683  13.725
   32ETHO   H2316649  18.836  17.587  13.585
   33ETHO    O116650  19.031  17.639  13.611
   33ETHO    C116651  19.027  17.772  13.563
   33ETHO   H1116652  18.944  17.784  13.491
   33ETHO   H1316653  18.998  17.841  13.646
   33ETHO    C216654  19.160  17.812  13.499
   33ETHO   H2116655  19.141  17.900  13.434
   33ETHO   H2316656  19.198  17.728  13.436
   34ETHO    O116657  19.255  17.845  13.602
   34ETHO    C116658  19.380  17.763  13.586
   34ETHO   H1116659  19.407  17.763  13.478
   34ETHO   H1316660  19.364  17.657  13.615
   34ETHO    C216661  19.495  17.813  13.669
   34ETHO   H2116662  19.509  17.923  13.657
   34ETHO   H2316663  19.590  17.763  13.640
   35ETHO    O116664  19.476  17.783  13.806
   35ETHO    C116665  19.572  17.847  13.880
   35ETHO   H1116666  19.668  17.856  13.825
   35ETHO   H1316667  19.538  17.949  13.909
   35ETHO    C216668  19.599  17.785  14.014
   35ETHO   H2116669  19.504  17.783  14.071
   35ETHO   H2316670  19.682  17.840  14.064
   36ETHO    O116671  19.643  17.649  13.989
   36ETHO    C116672  19.657  17.582  14.119
   36ETHO   H1116673  19.562  17.599  14.173
   36ETHO   H1316674  19.742  17.630  14.173
   36ETHO    C216675  19.686  17.426  14.120
   36ETHO   H2116676  19.719  17.397  14.222
   36ETHO   H2316677  19.769  17.397  14.053
   37ETHO    O116678  19.582  17.334  14.085
   37ETHO    C116679  19.622  17.192  14.097
   37ETHO   H1116680  19.720  17.169  14.050
   37ETHO   H1316681  19.624  17.173  14.207
   37ETHO    C216682  19.506  17.094  14.044
   37ETHO   H2116683  19.414  17.144  14.081
   37ETHO   H2316684  19.513  16.992  14.089
   38ETHO    O116685  19.512  17.078  13.902
   38ETHO    C116686  19.392  17.022  13.860
   38ETHO   H1116687  19.306  17.089  13.884
   38ETHO   H1316688  19.369  16.928  13.914
   38ETHO    C216689  19.392  16.994  13.714
   38ETHO   H2116690  19.310  16.921  13.700
   38ETHO   H2316691  19.493  16.958  13.686
   39ETHO    O116692  19.365  17.105  13.624
   39ETHO    C116693  19.472  17.188  13.597
   39ETHO   H1116694  19.520  17.218  13.692
   39ETHO   H1316695  19.552  17.142  13.535
   39ETHO    C216696  19.429  17.322  13.531
   39ETHO   H2116697  19.513  17.394  13.528
   39ETHO   H2316698  19.358  17.367  13.604
   40ETHO    O116699  19.370  17.313  13.403
   40ETHO    C116700  19.323  17.447  13.361
   40ETHO   H1116701  19.279  17.500  13.448
   40ETHO   H1316702  19.235  17.431  13.295
   40ETHO    C216703  19.421  17.537  13.279
   40ETHO   H2116704  19.354  17.616  13.239
   40ETHO   H2316705  19.473  17.473  13.205
   41ETHO    O116706  19.520  17.599  13.355
   41ETHO    C116707  19.658  17.555  13.336
   41ETHO   H1116708  19.666  17.446  13.356
   41ETHO   H1316709  19.681  17.560  13.227
   41ETHO    C216710  19.760  17.643  13.407
   41ETHO   H2116711  19.865  17.617  13.381
   41ETHO   H2316712  19.758  17.641  13.518
   42ETHO    O116713  19.747  17.778  13.362
   42ETHO    C116714  19.832  17.862  13.443
   42ETHO   H1116715  19.801  17.859  13.550
   42ETHO   H1316716  19.934  17.819  13.432
   42ETHO    C216717  19.828  18.003  13.386
   42ETHO   H2116718  19.852  18.013  13.278
   42ETHO   H2316719  19.908  18.062  13.435
   43ETHO    O116720  19.710  18.078  13.423
   43ETHO    C116721  19.586  18.056  13.363
   43ETHO   H1116722  19.592  18.053  13.252
   43ETHO   H1316723  19.557  17.953  13.395
   43ETHO    C216724  19.481  18.145  13.430
   43ETHO   H2116725  19.514  18.250  13.416
   43ETHO   H2316726  19.473  18.116  13.537
   44ETHO    O116727  19.362  18.124  13.360
   44ETHO    C116728  19.253  18.193  13.419
   44ETHO   H1116729  19.211  18.134  13.503
   44ETHO   H1316730  19.287  18.290  13.461
   44ETHO    C216731  19.140  18.225  13.322
   44ETHO   H2116732  19.174  18.255  13.221
   44ETHO   H2316733  19.074  18.306  13.359
   45ETHO    O116734  19.060  18.112  13.301
   45ETHO    C116735  18.938  18.151  13.226
   45ETHO   H1116736  18.967  18.194  13.128
   45ETHO   H1316737  18.880  18.221  13.290
   45ETHO    C216738  18.859  18.021  13.221
   45ETHO   H2116739  18.756  18.037  13.180
   45ETHO   H2316740  18.846  17.997  13.329
   46ETHO    O116741  18.924  17.919  13.144
   46ETHO    C116742  18.854  17.799  13.143
   46ETHO   H1116743  18.831  17.772  13.248
   46ETHO   H1316744  18.758  17.821  13.092
   46ETHO    C216745  18.942  17.684  13.084
   46ETHO   H2116746  18.897  17.590  13.121
   46ETHO   H2316747  19.043  17.688  13.131
   47ETHO    O116748  18.946  17.680  12.944
   47ETHO    C116749  19.001  17.554  12.900
   47ETHO   H1116750  18.934  17.473  12.934
   47ETHO   H1316751  19.096  17.533  12.954
   47ETHO    C216752  19.023  17.542  12.746
   47ETHO   H2116753  18.928  17.552  12.689
   47ETHO   H2316754  19.055  17.435  12.740
   48ETHO    O116755  19.120  17.626  12.687
   48ETHO    C116756  19.161  17.597  12.551
   48ETHO   H1116757  19.149  17.488  12.535
   48ETHO   H1316758  19.113  17.659  12.472
   48ETHO    C216759  19.320  17.618  12.543
   48ETHO   H2116760  19.355  17.613  12.438
   48ETHO   H2316761  19.341  17.718  12.587
   49ETHO    O116762  19.392  17.509  12.596
   49ETHO    C116763  19.414  17.514  12.739
   49ETHO   H1116764  19.354  17.595  12.785
   49ETHO   H1316765  19.522  17.540  12.751
   49ETHO    C216766  19.373  17.387  12.821
   49ETHO   H2116767  19.280  17.350  12.774
   49ETHO   H2316768  19.355  17.404  12.929
   50ETHO    O116769  19.476  17.292  12.815
   50ETHO    C116770  19.440  17.170  12.876
   50ETHO   H1116771  19.334  17.157  12.846
   50ETHO   H1316772  19.504  17.094  12.825
   50ETHO    C216773  19.453  17.159  13.022
   50ETHO   H2116774  19.405  17.064  13.052
   50ETHO   H2316775  19.412  17.248  13.076
   51ETHO    O116776  19.592  17.148  13.048
   51ETHO    C116777  19.619  17.142  13.185
   51ETHO   H1116778  19.570  17.057  13.237
   51ETHO   H1316779  19.596  17.240  13.231
   51ETHO    C216780  19.769  17.121  13.205
   51ETHO   H2116781  19.820  17.200  13.146
   51ETHO   H2316782  19.805  17.024  13.164
   52ETHO    O116783  19.780  17.134  13.348
   52ETHO    C116784  19.920  17.128  13.398
   52ETHO   H1116785  19.945  17.023  13.374
   52ETHO   H1316786  19.988  17.199  13.347
   52ETHO    C216787  19.914  17.155  13.541
   52ETHO   H2116788  20.009  17.126  13.592
   52ETHO   H2316789  19.823  17.104  13.580
   53ETHO    O116790  19.887  17.293  13.560
   53ETHO    C116791  19.882  17.319  13.698
   53ETHO   H1116792  19.796  17.272  13.749
   53ETHO   H1316793  19.973  17.282  13.750
   53ETHO    C216794  19.863  17.466  13.734
   53ETHO   H2116795  19.834  17.475  13.841
   53ETHO   H2316796  19.781  17.509  13.672
   54ETHO    O116797  19.982  17.543  13.716
   54ETHO    C116798  19.964  17.683  13.756
   54ETHO   H1116799  20.040  17.739  13.699
   54ETHO   H1316800  19.864  17.719  13.722
   54ETHO    C216801  19.997  17.709  13.905
   54ETHO   H2116802  19.933  17.650  13.974
   54ETHO   H2316803  19.964  17.813  13.927
   55ETHO    O116804  20.133  17.688  13.954
   55ETHO    C116805  20.154  17.744  14.085
   55ETHO   H1116806  20.143  17.854  14.088
   55ETHO   H1316807  20.066  17.705  14.142
   55ETHO    C216808  20.280  17.687  14.154
   55ETHO   H2116809  20.258  17.648  14.256
   55ETHO   H2316810  20.321  17.604  14.092
   56ETHO    O116811  20.379  17.780  14.155
   56ETHO    C116812  20.476  17.748  14.256
   56ETHO   H1116813  20.505  17.643  14.235
   56ETHO   H1316814  20.434  17.750  14.359
   56ETHO    C216815  20.585  17.849  14.236
   56ETHO   H2116816  20.656  17.834  14.320
   56ETHO   H2316817  20.532  17.946  14.245
   57ETHO    O116818  20.657  17.852  14.115
   57ETHO    C116819  20.743  17.967  14.107
   57ETHO   H1116820  20.687  18.057  14.139
   57ETHO   H1316821  20.825  17.964  14.182
   57ETHO    C216822  20.777  18.002  13.959
   57ETHO   H2116823  20.817  18.106  13.956
   57ETHO   H2316824  20.674  18.003  13.918
   58ETHO    O116825  20.851  17.898  13.899
   58ETHO    C116826  20.864  17.915  13.758
   58ETHO   H1116827  20.947  17.866  13.703
   58ETHO   H1316828  20.877  18.024  13.743
   58ETHO    C216829  20.737  17.869  13.691
   58ETHO   H2116830  20.730  17.911  13.588
   58ETHO   H2316831  20.648  17.921  13.733
   59ETHO    O116832  20.739  17.727  13.697
   59ETHO    C116833  20.643  17.674  13.598
   59ETHO   H1116834  20.656  17.734  13.505
   59ETHO   H1316835  20.669  17.567  13.584
   59ETHO    C216836  20.499  17.675  13.657
   59ETHO   H2116837  20.498  17.655  13.766
   59ETHO   H2316838  20.448  17.592  13.605
   60ETHO    O116839  20.434  17.801  13.617
   60ETHO    C116840  20.313  17.826  13.695
   60ETHO   H1116841  20.267  17.728  13.722
   60ETHO   H1316842  20.243  17.886  13.633
   60ETHO    C216843  20.325  17.912  13.825
   60ETHO   H2116844  20.387  17.854  13.896
   60ETHO   H2316845  20.220  17.929  13.859
   61ETHO    O116846  20.375  18.042  13.791
   61ETHO    C116847  20.413  18.116  13.901
   61ETHO   H1116848  20.328  18.150  13.964
   61ETHO   H1316849  20.477  18.053  13.967
   61ETHO    C216850  20.492  18.245  13.861
   61ETHO   H2116851  20.505  18.314  13.947
   61ETHO   H2316852  20.420  18.307  13.802
   62ETHO    O116853  20.610  18.217  13.785
   62ETHO    C116854  20.664  18.344  13.753
   62ETHO   H1116855  20.644  18.416  13.836
   62ETHO   H1316856  20.622  18.371  13.654
   62ETHO    C216857  20.812  18.342  13.743
   62ETHO   H2116858  20.856  18.432  13.696
   62ETHO   H2316859  20.827  18.257  13.674
   63ETHO    O116860  20.883  18.332  13.868
   63ETHO    C116861  21.023  18.324  13.863
   63ETHO   H1116862  21.048  18.236  13.799
   63ETHO   H1316863  21.062  18.407  13.800
   63ETHO    C216864  21.091  18.301  13.996
   63ETHO   H2116865  21.190  18.251  13.984
   63ETHO   H2316866  21.021  18.236  14.052
   64ETHO    O116867  21.105  18.432  14.051
   64ETHO    C116868  21.163  18.428  14.183
   64ETHO   H1116869  21.251  18.360  14.190
   64ETHO   H1316870  21.083  18.383  14.246
   64ETHO    C216871  21.194  18.571  14.240
   64ETHO   H2116872  21.263  18.628  14.175
   64ETHO   H2316873  21.234  18.545  14.340
   65ETHO    O116874  21.073  18.651  14.252
   65ETHO    C116875  21.087  18.767  14.319
   65ETHO   H1116876  21.185  18.817  14.310
   65ETHO   H1316877  21.019  18.841  14.271
   65ETHO    C216878  21.045  18.751  14.470
   65ETHO   H2116879  20.969  18.671  14.476
   65ETHO   H2316880  21.005  18.851  14.500
   66ETHO    O116881  21.154  18.724  14.562
   66ETHO    C116882  21.115  18.743  14.697
   66ETHO   H1116883  21.033  18.668  14.707
   66ETHO   H1316884  21.078  18.844  14.724
   66ETHO    C216885  21.222  18.694  14.801
   66ETHO   H2116886  21.240  18.584  14.799
   66ETHO   H2316887  21.188  18.724  14.902
   67ETHO    O116888  21.339  18.777  14.775
   67ETHO    C116889  21.423  18.790  14.889
   67ETHO   H1116890  21.408  18.703  14.957
   67ETHO   H1316891  21.532  18.793  14.867
   67ETHO    C216892  21.390  18.913  14.980
   67ETHO   H2116893  21.434  18.907  15.082
   67ETHO   H2316894  21.283  18.927  15.003
   68ETHO    O116895  21.450  19.029  14.925
   68ETHO    C116896  21.407  19.063  14.794
   68ETHO   H1116897  21.446  18.989  14.720
   68ETHO   H1316898  21.296  19.058  14.795
   68ETHO    C216899  21.435  19.204  14.744
   68ETHO   H2116900  21.377  19.277  14.805
   68ETHO   H2316901  21.392  19.222  14.644
   69ETHO    O116902  21.574  19.233  14.754
   69ETHO    C116903  21.619  19.329  14.653
   69ETHO   H1116904  21.617  19.272  14.558
   69ETHO   H1316905  21.550  19.416  14.656
   69ETHO    C216906  21.761  19.367  14.689
   69ETHO   H2116907  21.762  19.393  14.797
   69ETHO   H2316908  21.800  19.452  14.628
   70ETHO    O116909  21.850  19.259  14.684
   70ETHO    C116910  21.978  19.295  14.734
   70ETHO   H1116911  22.016  19.393  14.696
   70ETHO   H1316912  21.972  19.296  14.845
   70ETHO    C216913  22.087  19.184  14.704
   70ETHO   H2116914  22.044  19.090  14.745
   70ETHO   H2316915  22.171  19.219  14.768
   71ETHO    O116916  22.101  19.174  14.558
   71ETHO    C116917  22.225  19.114  14.533
   71ETHO   H1116918  22.235  19.015  14.583
   71ETHO   H1316919  22.302  19.186  14.571
   71ETHO    C216920  22.234  19.095  14.386
   71ETHO   H2116921  22.339  19.080  14.354
   71ETHO   H2316922  22.213  19.193  14.339
   72ETHO    O116923  22.140  18.992  14.337
   72ETHO    C116924  22.109  19.009  14.199
   72ETHO   H1116925  22.041  19.097  14.203
   72ETHO   H1316926  22.207  19.030  14.150
   72ETHO    C216927  22.041  18.898  14.120
   72ETHO   H2116928  22.022  18.928  14.015
   72ETHO   H2316929  21.943  18.860  14.157
   73ETHO    O116930  22.117  18.782  14.123
   73ETHO    C116931  22.058  18.674  14.051
   73ETHO   H1116932  22.142  18.607  14.024
   73ETHO   H1316933  22.005  18.719  13.964
   73ETHO    C216934  21.952  18.590  14.126
   73ETHO   H2116935  21.862  18.583  14.062
   73ETHO   H2316936  21.931  18.643  14.221
   74ETHO    O116937  22.000  18.460  14.160
   74ETHO    C116938  21.910  18.386  14.239
   74ETHO   H1116939  21.890  18.432  14.338
   74ETHO   H1316940  21.811  18.383  14.188
   74ETHO    C216941  21.957  18.240  14.252
   74ETHO   H2116942  21.965  18.185  14.155
   74ETHO   H2316943  21.885  18.183  14.314
   75ETHO    O116944  22.082  18.243  14.326
   75ETHO    C116945  22.123  18.120  14.385
   75ETHO   H1116946  22.039  18.051  14.407
   75ETHO   H1316947  22.190  18.151  14.468
   75ETHO    C216948  22.217  18.046  14.291
   75ETHO   H2116949  22.262  17.960  14.344
   75ETHO   H2316950  22.293  18.114  14.246
   76ETHO    O116951  22.131  17.998  14.193
   76ETHO    C116952  22.206  17.931  14.085
   76ETHO   H1116953  22.278  18.002  14.039
   76ETHO   H1316954  22.268  17.845  14.116
   76ETHO    C216955  22.108  17.893  13.971
   76ETHO   H2116956  22.159  17.847  13.883
   76ETHO   H2316957  22.059  17.983  13.928
   77ETHO    O116958  22.019  17.796  14.020
   77ETHO    C116959  21.975  17.706  13.914
   77ETHO   H1116960  22.048  17.622  13.909
   77ETHO   H1316961  21.965  17.757  13.816
   77ETHO    C216962  21.842  17.635  13.955
   77ETHO   H2116963  21.852  17.645  14.065
   77ETHO   H2316964  21.822  17.532  13.918
   78ETHO    O116965  21.725  17.724  13.927
   78ETHO    C116966  21.603  17.661  13.968
   78ETHO   H1116967  21.616  17.552  13.953
   78ETHO   H1316968  21.589  17.654  14.078
   78ETHO    C216969  21.480  17.715  13.887
   78ETHO   H2116970  21.449  17.819  13.913
   78ETHO   H2316971  21.386  17.664  13.918
   79ETHO    O116972  21.484  17.694  13.749
   79ETHO    C116973  21.382  17.753  13.672
   79ETHO   H1116974  21.283  17.742  13.721
   79ETHO   H1316975  21.395  17.863  13.665
   79ETHO    C216976  21.384  17.692  13.529
   79ETHO   H2116977  21.486  17.685  13.484
   79ETHO   H2316978  21.327  17.748  13.452
   80ETHO    O116979  21.311  17.569  13.534
   80ETHO    C116980  21.374  17.452  13.576
   80ETHO   H1116981  21.476  17.433  13.535
   80ETHO   H1316982  21.389  17.469  13.685
   80ETHO    C216983  21.290  17.326  13.556
   80ETHO   H2116984  21.207  17.340  13.628
   80ETHO   H2316985  21.344  17.231  13.576
   81ETHO    O116986  21.249  17.314  13.418
   81ETHO    C116987  21.344  17.247  13.344
   81ETHO   H1116988  21.442  17.298  13.337
   81ETHO   H1316989  21.356  17.139  13.370
   81ETHO    C216990  21.287  17.232  13.198
   81ETHO   H2116991  21.248  17.331  13.165
   81ETHO   H2316992  21.370  17.195  13.134
   82ETHO    O116993  21.183  17.130  13.190
   82ETHO    C116994  21.055  17.183  13.219
   82ETHO   H1116995  21.045  17.292  13.198
   82ETHO   H1316996  21.047  17.173  13.330
   82ETHO    C216997  20.937  17.109  13.155
   82ETHO   H2116998  20.937  17.088  13.046
   82ETHO   H2316999  20.853  17.178  13.174
   83ETHO    O117000  20.904  16.980  13.221
   83ETHO    C117001  20.801  16.913  13.151
   83ETHO   H1117002  20.703  16.965  13.156
   83ETHO   H1317003  20.835  16.884  13.049
   83ETHO    C217004  20.789  16.776  13.226
   83ETHO   H2117005  20.747  16.786  13.329
   83ETHO   H2317006  20.893  16.736  13.228
   84ETHO    O117007  20.706  16.684  13.164
   84ETHO    C117008  20.699  16.560  13.237
   84ETHO   H1117009  20.669  16.577  13.342
   84ETHO   H1317010  20.795  16.506  13.233
   84ETHO    C217011  20.591  16.470  13.166
   84ETHO   H2117012  20.599  16.363  13.197
   84ETHO   H2317013  20.609  16.467  13.056
   85ETHO    O117014  20.462  16.524  13.201
   85ETHO    C117015  20.358  16.447  13.141
   85ETHO   H1117016  20.394  16.372  13.068
   85ETHO   H1317017  20.312  16.380  13.216
   85ETHO    C217018  20.248  16.528  13.085
   85ETHO   H2117019  20.210  16.476  12.995
   85ETHO   H2317020  20.291  16.624  13.050
   86ETHO    O117021  20.128  16.553  13.171
   86ETHO    C117022  20.036  16.633  13.106
   86ETHO   H1117023  19.961  16.572  13.051
   86ETHO   H1317024  20.086  16.698  13.031
   86ETHO    C217025  19.959  16.722  13.203
   86ETHO   H2117026  19.908  16.800  13.143
   86ETHO   H2317027  20.040  16.765  13.265
   87ETHO    O117028  19.867  16.656  13.296
   87ETHO    C117029  19.815  16.748  13.394
   87ETHO   H1117030  19.893  16.772  13.470
   87ETHO   H1317031  19.788  16.847  13.352
   87ETHO    C217032  19.691  16.686  13.454
   87ETHO   H2117033  19.655  16.739  13.546
   87ETHO   H2317034  19.714  16.587  13.499
   88ETHO    O117035  19.582  16.670  13.359
   88ETHO    C117036  19.457  16.671  13.424
   88ETHO   H1117037  19.442  16.775  13.460
   88ETHO   H1317038  19.467  16.593  13.503
   88ETHO    C217039  19.342  16.627  13.332
   88ETHO   H2117040  19.339  16.692  13.242
   88ETHO   H2317041  19.244  16.629  13.384
   89ETHO    O117042  19.371  16.491  13.298
   89ETHO    C117043  19.292  16.444  13.197
   89ETHO   H1117044  19.194  16.492  13.221
   89ETHO   H1317045  19.325  16.480  13.098
   89ETHO    C217046  19.290  16.289  13.201
   89ETHO   H2117047  19.395  16.255  13.207
   89ETHO   H2317048  19.236  16.256  13.110
   90ETHO    O117049  19.219  16.239  13.314
   90ETHO    C117050  19.281  16.123  13.368
   90ETHO   H1117051  19.308  16.063  13.279
   90ETHO   H1317052  19.368  16.158  13.428
   90ETHO    C217053  19.203  16.020  13.453
   90ETHO   H2117054  19.172  16.061  13.551
   90ETHO   H2317055  19.272  15.936  13.475
   91ETHO    O117056  19.082  15.989  13.380
   91ETHO    C117057  18.992  15.906  13.459
   91ETHO   H1117058  19.050  15.814  13.484
   91ETHO   H1317059  18.975  15.961  13.554
   91ETHO    C217060  18.854  15.866  13.400
   91ETHO   H2117061  18.795  15.835  13.488
   91ETHO   H2317062  18.870  15.785  13.325
   92ETHO    O117063  18.804  15.988  13.343
   92ETHO    C117064  18.677  15.973  13.277
   92ETHO   H1117065  18.684  15.920  13.180
   92ETHO   H1317066  18.605  15.935  13.353
   92ETHO    C217067  18.611  16.104  13.234
   92ETHO   H2117068  18.682  16.169  13.178
   92ETHO   H2317069  18.587  16.162  13.326
   93ETHO    O117070  18.493  16.080  13.155
   93ETHO    C117071  18.427  16.203  13.125
   93ETHO   H1117072  18.513  16.267  13.095
   93ETHO   H1317073  18.370  16.243  13.212
   93ETHO    C217074  18.325  16.176  13.009
   93ETHO   H2117075  18.398  16.175  12.926
   93ETHO   H2317076  18.279  16.275  12.988
   94ETHO    O117077  18.230  16.079  13.034
   94ETHO    C117078  18.117  16.110  12.952
   94ETHO   H1117079  18.081  16.197  13.012
   94ETHO   H1317080  18.160  16.149  12.857
   94ETHO    C217081  18.016  15.997  12.941
   94ETHO   H2117082  17.930  16.022  12.874
   94ETHO   H2317083  17.974  15.978  13.042
   95ETHO    O117084  18.074  15.878  12.893
   95ETHO    C117085  17.980  15.768  12.869
   95ETHO   H1117086  17.915  15.757  12.958
   95ETHO   H1317087  18.044  15.678  12.857
   95ETHO    C217088  17.902  15.785  12.743
   95ETHO   H2117089  17.968  15.788  12.654
   95ETHO   H2317090  17.843  15.878  12.756
   96ETHO    O117091  17.812  15.669  12.732
   96ETHO    C117092  17.740  15.684  12.609
   96ETHO   H1117093  17.703  15.789  12.599
   96ETHO   H1317094  17.802  15.667  12.519
   96ETHO    C217095  17.622  15.586  12.600
   96ETHO   H2117096  17.663  15.491  12.641
   96ETHO   H2317097  17.593  15.580  12.493
   97ETHO    O117098  17.506  15.624  12.679
   97ETHO    C117099  17.387  15.569  12.624
   97ETHO   H1117100  17.383  15.458  12.615
   97ETHO   H1317101  17.378  15.601  12.518
   97ETHO    C217102  17.260  15.607  12.701
   97ETHO   H2117103  17.262  15.716  12.722
   97ETHO   H2317104  17.256  15.563  12.802
   98ETHO    O117105  17.138  15.571  12.628
   98ETHO    C117106  17.018  15.577  12.714
   98ETHO   H1117107  17.021  15.497  12.791
   98ETHO   H1317108  17.026  15.670  12.773
   98ETHO    C217109  16.897  15.564  12.623
   98ETHO   H2117110  16.921  15.509  12.530
   98ETHO   H2317111  16.851  15.663  12.601
   99ETHO    O117112  16.796  15.474  12.681
   99ETHO    C117113  16.698  15.431  12.580
   99ETHO   H1117114  16.744  15.377  12.495
   99ETHO   H1317115  16.663  15.525  12.532
   99ETHO    C217116  16.572  15.360  12.639
   99ETHO   H2117117  16.483  15.381  12.576
   99ETHO   H2317118  16.559  15.413  12.736
  100ETHO    O117119  16.582  15.218  12.667
  100ETHO    C117120  16.671  15.182  12.777
  100ETHO   H1117121  16.766  15.226  12.739
  100ETHO   H1317122  16.666  15.246  12.867
  100ETHO    C217123  16.689  15.030  12.811
  100ETHO   H2117124  16.772  15.017  12.885
  100ETHO   H2317125  16.714  14.966  12.724
  101PROX    O117126  16.577  14.970  12.867
  101PROX    C117127  16.485  14.938  12.774
  101PROX   H1117128  16.438  15.032  12.737
  101PROX   H1317129  16.531  14.883  12.690
  101PROX    C217130  16.383  14.858  12.846
  101PROX   H2117131  16.342  14.924  12.926
  101PROX    C317132  16.434  14.729  12.903
  101PROX   H3117133  16.518  14.746  12.974
  101PROX   H3217134  16.357  14.678  12.965
  101PROX   H3317135  16.453  14.661  12.817
  102PROX    O117136  16.279  14.825  12.752
  102PROX    C117137  16.191  14.935  12.732
  102PROX   H1117138  16.148  14.963  12.830
  102PROX   H1317139  16.248  15.017  12.684
  102PROX    C217140  16.078  14.900  12.635
  102PROX   H2117141  16.014  14.818  12.675
  102PROX    C317142  16.148  14.851  12.504
  102PROX   H3117143  16.228  14.923  12.474
  102PROX   H3217144  16.205  14.760  12.533
  102PROX   H3317145  16.075  14.830  12.423
  103PROX    O117146  16.000  15.015  12.611
  103PROX    C117147  15.899  15.037  12.702
  103PROX   H1117148  15.921  14.982  12.796
  103PROX   H1317149  15.879  15.146  12.712
  103PROX    C217150  15.764  14.978  12.646
  103PROX   H2117151  15.780  14.869  12.636
  103PROX    C317152  15.728  15.015  12.499
  103PROX   H3117153  15.794  14.973  12.421
  103PROX   H3217154  15.630  14.969  12.477
  103PROX   H3317155  15.718  15.123  12.477
  104PROX    O117156  15.647  15.006  12.716
  104PROX    C117157  15.639  14.934  12.842
  104PROX   H1117158  15.741  14.923  12.884
  104PROX   H1317159  15.583  15.006  12.906
  104PROX    C217160  15.552  14.807  12.829
  104PROX   H2117161  15.478  14.829  12.749
  104PROX    C317162  15.477  14.771  12.958
  104PROX   H3117163  15.545  14.715  13.026
  104PROX   H3217164  15.433  14.863  13.003
  104PROX   H3317165  15.389  14.703  12.948
  105PROX    O117166  15.643  14.697  12.793
  105PROX    C117167  15.574  14.573  12.768
  105PROX   H1117168  15.528  14.534  12.861
  105PROX   H1317169  15.496  14.584  12.689
  105PROX    C217170  15.676  14.462  12.722
  105PROX   H2117171  15.751  14.448  12.802
  105PROX    C317172  15.751  14.500  12.589
  105PROX   H3117173  15.819  14.419  12.556
  105PROX   H3217174  15.677  14.537  12.515
  105PROX   H3317175  15.802  14.597  12.609
  106PROX    O117176  15.603  14.341  12.694
  106PROX    C117177  15.618  14.240  12.791
  106PROX   H1117178  15.629  14.293  12.888
  106PROX   H1317179  15.535  14.168  12.805
  106PROX    C217180  15.749  14.165  12.757
  106PROX   H2117181  15.816  14.224  12.692
  106PROX    C317182  15.727  14.034  12.680
  106PROX   H3117183  15.697  14.057  12.576
  106PROX   H3217184  15.828  13.991  12.665
  106PROX   H3317185  15.655  13.968  12.732
  107PROX    O117186  15.818  14.139  12.878
  107PROX    C117187  15.943  14.196  12.886
  107PROX   H1117188  15.951  14.304  12.863
  107PROX   H1317189  15.979  14.191  12.991
  107PROX    C217190  16.045  14.128  12.801
  107PROX   H2117191  16.016  14.136  12.694
  107PROX    C317192  16.078  13.986  12.832
  107PROX   H3117193  16.148  13.946  12.755
  107PROX   H3217194  16.125  13.968  12.931
  107PROX   H3317195  15.994  13.916  12.814
  108PROX    O117196  16.165  14.206  12.814
  108PROX    C117197  16.272  14.172  12.732
  108PROX   H1117198  16.334  14.094  12.782
  108PROX   H1317199  16.233  14.128  12.638
  108PROX    C217200  16.366  14.293  12.701
  108PROX   H2117201  16.444  14.248  12.636
  108PROX    C317202  16.432  14.356  12.834
  108PROX   H3117203  16.350  14.373  12.907
  108PROX   H3217204  16.512  14.290  12.875
  108PROX   H3317205  16.481  14.452  12.805
  109PROX    O117206  16.293  14.393  12.635
  109PROX    C117207  16.318  14.405  12.495
  109PROX   H1117208  16.407  14.470  12.478
  109PROX   H1317209  16.341  14.304  12.454
  109PROX    C217210  16.192  14.456  12.421
  109PROX   H2117211  16.163  14.559  12.453
  109PROX    C317212  16.077  14.357  12.449
  109PROX   H3117213  15.974  14.397  12.436
  109PROX   H3217214  16.103  14.266  12.391
  109PROX   H3317215  16.084  14.325  12.555
  110PROX    O117216  16.209  14.454  12.275
  110PROX    C117217  16.143  14.560  12.215
  110PROX   H1117218  16.078  14.623  12.279
  110PROX   H1317219  16.211  14.640  12.177
  110PROX    C217220  16.060  14.513  12.099
  110PROX   H2117221  16.017  14.413  12.121
  110PROX    C317222  16.142  14.502  11.976
  110PROX   H3117223  16.186  14.595  11.935
  110PROX   H3217224  16.227  14.432  11.989
  110PROX   H3317225  16.084  14.446  11.899
  111PROX    O117226  15.956  14.599  12.075
  111PROX    C117227  15.835  14.568  12.146
  111PROX   H1117228  15.856  14.539  12.251
  111PROX   H1317229  15.773  14.660  12.140
  111PROX    C217230  15.761  14.459  12.069
  111PROX   H2117231  15.810  14.360  12.078
  111PROX    C317232  15.746  14.498  11.922
  111PROX   H3117233  15.852  14.483  11.891
  111PROX   H3217234  15.678  14.430  11.867
  111PROX   H3317235  15.706  14.601  11.914
  112PROX    O117236  15.623  14.456  12.129
  112PROX    C117237  15.610  14.332  12.200
  112PROX   H1117238  15.619  14.249  12.127
  112PROX   H1317239  15.688  14.328  12.279
  112PROX    C217240  15.477  14.300  12.272
  112PROX   H2117241  15.393  14.304  12.200
  112PROX    C317242  15.435  14.403  12.379
  112PROX   H3117243  15.520  14.398  12.451
  112PROX   H3217244  15.456  14.508  12.350
  112PROX   H3317245  15.340  14.392  12.436
  113PROX    O117246  15.495  14.166  12.314
  113PROX    C117247  15.427  14.129  12.427
  113PROX   H1117248  15.483  14.164  12.516
  113PROX   H1317249  15.322  14.166  12.425
  113PROX    C217250  15.414  13.976  12.450
  113PROX   H2117251  15.515  13.934  12.429
  113PROX    C317252  15.309  13.911  12.356
  113PROX   H3117253  15.311  13.953  12.253
  113PROX   H3217254  15.337  13.803  12.352
  113PROX   H3317255  15.209  13.920  12.402
  114PROX    O117256  15.384  13.962  12.591
  114PROX    C117257  15.363  13.827  12.621
  114PROX   H1117258  15.255  13.802  12.607
  114PROX   H1317259  15.413  13.754  12.555
  114PROX    C217260  15.403  13.793  12.765
  114PROX   H2117261  15.363  13.693  12.789
  114PROX    C317262  15.346  13.890  12.872
  114PROX   H3117263  15.236  13.889  12.864
  114PROX   H3217264  15.380  13.861  12.974
  114PROX   H3317265  15.397  13.984  12.843
  115PROX    O117266  15.543  13.767  12.773
  115PROX    C117267  15.576  13.694  12.889
  115PROX   H1117268  15.642  13.756  12.953
  115PROX   H1317269  15.493  13.666  12.956
  115PROX    C217270  15.665  13.568  12.853
  115PROX   H2117271  15.761  13.596  12.805
  115PROX    C317272  15.583  13.482  12.755
  115PROX   H3117273  15.625  13.380  12.749
  115PROX   H3217274  15.479  13.484  12.795
  115PROX   H3317275  15.587  13.528  12.654
  116PROX    O117276  15.696  13.492  12.964
  116PROX    C117277  15.797  13.555  13.038
  116PROX   H1117278  15.806  13.663  13.015
  116PROX   H1317279  15.769  13.547  13.146
  116PROX    C217280  15.934  13.480  13.023
  116PROX   H2117281  15.923  13.370  13.013
  116PROX    C317282  16.027  13.513  13.143
  116PROX   H3117283  16.007  13.447  13.230
  116PROX   H3217284  16.132  13.506  13.108
  116PROX   H3317285  15.992  13.615  13.170
  117PROX    O117286  16.001  13.528  12.909
  117PROX    C117287  15.998  13.438  12.802
  117PROX   H1117288  16.054  13.343  12.814
  117PROX   H1317289  15.890  13.419  12.782
  117PROX    C217290  16.063  13.505  12.675
  117PROX   H2117291  16.166  13.541  12.696
  117PROX    C317292  15.979  13.628  12.631
  117PROX   H3117293  15.883  13.597  12.585
  117PROX   H3217294  15.950  13.690  12.719
  117PROX   H3317295  16.029  13.698  12.561
  118PROX    O117296  16.065  13.402  12.576
  118PROX    C117297  16.142  13.423  12.461
  118PROX   H1117298  16.208  13.510  12.483
  118PROX   H1317299  16.212  13.342  12.432
  118PROX    C217300  16.060  13.460  12.329
  118PROX   H2117301  16.005  13.366  12.304
  118PROX    C317302  16.152  13.497  12.210
  118PROX   H3117303  16.208  13.589  12.235
  118PROX   H3217304  16.217  13.413  12.177
  118PROX   H3317305  16.097  13.536  12.121
  119PROX    O117306  15.974  13.566  12.352
  119PROX    C117307  15.841  13.558  12.289
  119PROX   H1117308  15.848  13.527  12.182
  119PROX   H1317309  15.787  13.477  12.343
  119PROX    C217310  15.763  13.695  12.308
  119PROX   H2117311  15.781  13.730  12.412
  119PROX    C317312  15.612  13.666  12.289
  119PROX   H3117313  15.592  13.611  12.195
  119PROX   H3217314  15.576  13.603  12.374
  119PROX   H3317315  15.550  13.757  12.287
  120PROX    O117316  15.804  13.790  12.209
  120PROX    C117317  15.939  13.827  12.231
  120PROX   H1117318  16.010  13.741  12.228
  120PROX   H1317319  15.963  13.873  12.133
  120PROX    C217320  15.960  13.930  12.340
  120PROX   H2117321  15.933  13.886  12.438
  120PROX    C317322  15.871  14.063  12.326
  120PROX   H3117323  15.881  14.114  12.228
  120PROX   H3217324  15.764  14.035  12.333
  120PROX   H3317325  15.889  14.122  12.418
  121PROX    O117326  16.092  13.975  12.346
  121PROX    C117327  16.189  13.875  12.377
  121PROX   H1117328  16.172  13.838  12.480
  121PROX   H1317329  16.192  13.804  12.292
  121PROX    C217330  16.328  13.947  12.390
  121PROX   H2117331  16.324  14.030  12.464
  121PROX    C317332  16.381  14.005  12.257
  121PROX   H3117333  16.477  14.055  12.280
  121PROX   H3217334  16.398  13.930  12.176
  121PROX   H3317335  16.316  14.085  12.215
  122PROX    O117336  16.416  13.843  12.433
  122PROX    C117337  16.394  13.810  12.574
  122PROX   H1117338  16.344  13.896  12.623
  122PROX   H1317339  16.325  13.723  12.582
  122PROX    C217340  16.533  13.779  12.646
  122PROX   H2117341  16.598  13.869  12.647
  122PROX    C317342  16.602  13.675  12.563
  122PROX   H3117343  16.537  13.595  12.523
  122PROX   H3217344  16.646  13.729  12.476
  122PROX   H3317345  16.680  13.620  12.620
  123PROX    O117346  16.515  13.728  12.769
  123PROX    C117347  16.476  13.822  12.863
  123PROX   H1117348  16.559  13.896  12.857
  123PROX   H1317349  16.382  13.865  12.822
  123PROX    C217350  16.463  13.765  12.999
  123PROX   H2117351  16.544  13.692  13.022
  123PROX    C317352  16.337  13.678  13.020
  123PROX   H3117353  16.343  13.594  13.094
  123PROX   H3217354  16.251  13.743  13.044
  123PROX   H3317355  16.306  13.626  12.927
  124PROX    O117356  16.478  13.871  13.088
  124PROX    C117357  16.472  13.829  13.225
  124PROX   H1117358  16.368  13.809  13.259
  124PROX   H1317359  16.536  13.739  13.237
  124PROX    C217360  16.527  13.926  13.329
  124PROX   H2117361  16.623  13.967  13.292
  124PROX    C317362  16.548  13.858  13.461
  124PROX   H3117363  16.450  13.825  13.501
  124PROX   H3217364  16.598  13.760  13.445
  124PROX   H3317365  16.613  13.911  13.533
  125PROX    O117366  16.431  14.030  13.347
  125PROX    C117367  16.474  14.144  13.412
  125PROX   H1117368  16.469  14.130  13.522
  125PROX   H1317369  16.580  14.162  13.384
  125PROX    C217370  16.375  14.264  13.378
  125PROX   H2117371  16.278  14.225  13.415
  125PROX    C317372  16.369  14.302  13.233
  125PROX   H3117373  16.344  14.209  13.177
  125PROX   H3217374  16.292  14.379  13.211
  125PROX   H3317375  16.469  14.337  13.201
  126PROX    O117376  16.409  14.384  13.447
  126PROX    C117377  16.318  14.417  13.553
  126PROX   H1117378  16.286  14.320  13.596
  126PROX   H1317379  16.377  14.484  13.619
  126PROX    C217380  16.186  14.494  13.505
  126PROX   H2117381  16.228  14.577  13.444
  126PROX    C317382  16.116  14.551  13.626
  126PROX   H3117383  16.070  14.469  13.684
  126PROX   H3217384  16.194  14.599  13.689
  126PROX   H3317385  16.030  14.611  13.589
  127PROX    O117386  16.106  14.408  13.426
  127PROX    C117387  16.017  14.476  13.340
  127PROX   H1117388  15.943  14.539  13.393
  127PROX   H1317389  16.078  14.543  13.276
  127PROX    C217390  15.934  14.375  13.253
  127PROX   H2117391  16.014  14.318  13.201
  127PROX    C317392  15.849  14.464  13.156
  127PROX   H3117393  15.923  14.518  13.093
  127PROX   H3217394  15.769  14.403  13.109
  127PROX   H3317395  15.805  14.545  13.218
  128PROX    O117396  15.849  14.290  13.338
  128PROX    C117397  15.814  14.171  13.274
  128PROX   H1117398  15.711  14.150  13.311
  128PROX   H1317399  15.799  14.165  13.164
  128PROX    C217400  15.915  14.060  13.311
  128PROX   H2117401  16.015  14.092  13.275
  128PROX    C317402  15.890  13.932  13.233
  128PROX   H3117403  15.976  13.862  13.240
  128PROX   H3217404  15.811  13.880  13.293
  128PROX   H3317405  15.862  13.946  13.127
  129PROX    O117406  15.928  14.031  13.450
  129PROX    C117407  16.048  13.973  13.492
  129PROX   H1117408  16.057  13.865  13.464
  129PROX   H1317409  16.132  14.023  13.439
  129PROX    C217410  16.078  13.990  13.641
  129PROX   H2117411  16.036  14.089  13.669
  129PROX    C317412  16.230  13.961  13.680
  129PROX   H3117413  16.301  14.032  13.633
  129PROX   H3217414  16.246  13.978  13.788
  129PROX   H3317415  16.258  13.859  13.646
  130PROX    O117416  15.994  13.892  13.710
  130PROX    C117417  15.984  13.924  13.853
  130PROX   H1117418  15.938  13.834  13.900
  130PROX   H1317419  16.078  13.950  13.906
  130PROX    C217420  15.882  14.043  13.891
  130PROX   H2117421  15.895  14.122  13.814
  130PROX    C317422  15.917  14.115  14.027
  130PROX   H3117423  15.908  14.037  14.105
  130PROX   H3217424  16.021  14.153  14.027
  130PROX   H3317425  15.852  14.203  14.047
  131PROX    O117426  15.749  13.998  13.901
  131PROX    C117427  15.699  13.954  13.779
  131PROX   H1117428  15.710  14.036  13.705
  131PROX   H1317429  15.759  13.867  13.748
  131PROX    C217430  15.557  13.904  13.799
  131PROX   H2117431  15.500  13.986  13.847
  131PROX    C317432  15.555  13.770  13.871
  131PROX   H3117433  15.450  13.735  13.870
  131PROX   H3217434  15.616  13.692  13.821
  131PROX   H3317435  15.583  13.790  13.977
  132PROX    O117436  15.504  13.857  13.671
  132PROX    C117437  15.464  13.955  13.569
  132PROX   H1117438  15.547  14.000  13.511
  132PROX   H1317439  15.424  13.888  13.489
  132PROX    C217440  15.355  14.059  13.612
  132PROX   H2117441  15.281  14.009  13.678
  132PROX    C317442  15.293  14.129  13.481
  132PROX   H3117443  15.220  14.208  13.507
  132PROX   H3217444  15.378  14.177  13.427
  132PROX   H3317445  15.242  14.052  13.419
  133PROX    O117446  15.422  14.164  13.684
  133PROX    C117447  15.342  14.225  13.782
  133PROX   H1117448  15.262  14.277  13.727
  133PROX   H1317449  15.293  14.156  13.854
  133PROX    C217450  15.420  14.335  13.854
  133PROX   H2117451  15.460  14.401  13.775
  133PROX    C317452  15.539  14.274  13.939
  133PROX   H3117453  15.606  14.356  13.973
  133PROX   H3217454  15.502  14.223  14.031
  133PROX   H3317455  15.592  14.205  13.870
  134PROX    O117456  15.330  14.399  13.943
  134PROX    C117457  15.285  14.524  13.892
  134PROX   H1117458  15.361  14.604  13.907
  134PROX   H1317459  15.263  14.522  13.784
  134PROX    C217460  15.141  14.557  13.947
  134PROX   H2117461  15.152  14.628  14.031
  134PROX    C317462  15.065  14.430  13.997
  134PROX   H3117463  15.109  14.373  14.082
  134PROX   H3217464  14.959  14.447  14.023
  134PROX   H3317465  15.053  14.356  13.915
  135PROX    O117466  15.075  14.632  13.849
  135PROX    C117467  14.952  14.684  13.900
  135PROX   H1117468  14.913  14.641  13.995
  135PROX   H1317469  14.967  14.793  13.912
  135PROX    C217470  14.841  14.655  13.794
  135PROX   H2117471  14.862  14.714  13.702
  135PROX    C317472  14.709  14.714  13.848
  135PROX   H3117473  14.727  14.821  13.870
  135PROX   H3217474  14.627  14.704  13.774
  135PROX   H3317475  14.680  14.668  13.944
  136PROX    O117476  14.820  14.513  13.769
  136PROX    C117477  14.837  14.493  13.627
  136PROX   H1117478  14.754  14.542  13.571
  136PROX   H1317479  14.932  14.524  13.579
  136PROX    C217480  14.835  14.342  13.603
  136PROX   H2117481  14.782  14.291  13.687
  136PROX    C317482  14.988  14.303  13.599
  136PROX   H3117483  14.994  14.193  13.585
  136PROX   H3217484  15.022  14.358  13.509
  136PROX   H3317485  15.052  14.331  13.685
  137PROX    O117486  14.770  14.321  13.481
  137PROX    C117487  14.726  14.191  13.467
  137PROX   H1117488  14.809  14.117  13.467
  137PROX   H1317489  14.653  14.162  13.545
  137PROX    C217490  14.644  14.183  13.343
  137PROX   H2117491  14.703  14.197  13.250
  137PROX    C317492  14.538  14.290  13.352
  137PROX   H3117493  14.476  14.281  13.260
  137PROX   H3217494  14.467  14.270  13.435
  137PROX   H3317495  14.580  14.393  13.354
  138PROX    O117496  14.582  14.056  13.345
  138PROX    C117497  14.670  13.957  13.286
  138PROX   H1117498  14.670  13.965  13.176
  138PROX   H1317499  14.773  13.957  13.327
  138PROX    C217500  14.617  13.813  13.314
  138PROX   H2117501  14.548  13.790  13.230
  138PROX    C317502  14.540  13.791  13.446
  138PROX   H3117503  14.450  13.855  13.450
  138PROX   H3217504  14.500  13.687  13.452
  138PROX   H3317505  14.614  13.813  13.526
  139PROX    O117506  14.726  13.723  13.306
  139PROX    C117507  14.747  13.670  13.175
  139PROX   H1117508  14.751  13.559  13.167
  139PROX   H1317509  14.676  13.706  13.098
  139PROX    C217510  14.880  13.727  13.123
  139PROX   H2117511  14.894  13.684  13.021
  139PROX    C317512  14.994  13.686  13.223
  139PROX   H3117513  15.085  13.743  13.193
  139PROX   H3217514  14.970  13.716  13.327
  139PROX   H3317515  15.002  13.576  13.227
  140PROX    O117516  14.877  13.869  13.119
  140PROX    C117517  14.974  13.921  13.026
  140PROX   H1117518  15.072  13.869  13.032
  140PROX   H1317519  14.933  13.906  12.924
  140PROX    C217520  15.005  14.061  13.063
  140PROX   H2117521  15.078  14.112  12.997
  140PROX    C317522  15.061  14.074  13.204
  140PROX   H3117523  15.107  14.170  13.234
  140PROX   H3217524  14.976  14.061  13.274
  140PROX   H3317525  15.137  13.994  13.220
  141PROX    O117526  14.881  14.137  13.050
  141PROX    C117527  14.823  14.151  12.924
  141PROX   H1117528  14.902  14.142  12.847
  141PROX   H1317529  14.747  14.071  12.911
  141PROX    C217530  14.745  14.290  12.908
  141PROX   H2117531  14.812  14.366  12.953
  141PROX    C317532  14.609  14.301  12.979
  141PROX   H3117533  14.571  14.396  12.935
  141PROX   H3217534  14.542  14.215  12.957
  141PROX   H3317535  14.638  14.316  13.085
  142PROX    O117536  14.717  14.315  12.765
  142PROX    C117537  14.802  14.410  12.704
  142PROX   H1117538  14.903  14.396  12.748
  142PROX   H1317539  14.805  14.389  12.595
  142PROX    C217540  14.757  14.557  12.714
  142PROX   H2117541  14.651  14.567  12.681
  142PROX    C317542  14.852  14.646  12.629
  142PROX   H3117543  14.835  14.754  12.643
  142PROX   H3217544  14.959  14.624  12.648
  142PROX   H3317545  14.841  14.622  12.521
  143PROX    O117546  14.762  14.587  12.854
  143PROX    C117547  14.692  14.708  12.884
  143PROX   H1117548  14.740  14.797  12.838
  143PROX   H1317549  14.588  14.690  12.850
  143PROX    C217550  14.680  14.725  13.038
  143PROX   H2117551  14.783  14.729  13.081
  143PROX    C317552  14.584  14.622  13.105
  143PROX   H3117553  14.647  14.530  13.113
  143PROX   H3217554  14.569  14.659  13.209
  143PROX   H3317555  14.491  14.613  13.046
  144PROX    O117556  14.612  14.846  13.071
  144PROX    C117557  14.694  14.964  13.068
  144PROX   H1117558  14.802  14.957  13.094
  144PROX   H1317559  14.689  15.018  12.971
  144PROX    C217560  14.620  15.068  13.158
  144PROX   H2117561  14.523  15.082  13.106
  144PROX    C317562  14.683  15.204  13.156
  144PROX   H3117563  14.639  15.272  13.233
  144PROX   H3217564  14.792  15.190  13.175
  144PROX   H3317565  14.671  15.246  13.053
  145PROX    O117566  14.600  15.012  13.287
  145PROX    C117567  14.711  15.024  13.380
  145PROX   H1117568  14.797  15.059  13.320
  145PROX   H1317569  14.685  15.104  13.454
  145PROX    C217570  14.741  14.887  13.449
  145PROX   H2117571  14.751  14.805  13.374
  145PROX    C317572  14.616  14.842  13.531
  145PROX   H3117573  14.625  14.742  13.577
  145PROX   H3217574  14.602  14.919  13.610
  145PROX   H3317575  14.523  14.831  13.471
  146PROX    O117576  14.849  14.893  13.533
  146PROX    C117577  14.970  14.887  13.462
  146PROX   H1117578  14.961  14.807  13.385
  146PROX   H1317579  15.001  14.983  13.416
  146PROX    C217580  15.074  14.845  13.562
  146PROX   H2117581  15.035  14.747  13.597
  146PROX    C317582  15.092  14.935  13.691
  146PROX   H3117583  14.995  14.939  13.745
  146PROX   H3217584  15.171  14.898  13.759
  146PROX   H3317585  15.128  15.035  13.660
  147PROX    O117586  15.202  14.827  13.499
  147PROX    C117587  15.266  14.952  13.465
  147PROX   H1117588  15.193  15.033  13.449
  147PROX   H1317589  15.342  14.964  13.545
  147PROX    C217590  15.336  14.943  13.328
  147PROX   H2117591  15.398  14.851  13.326
  147PROX    C317592  15.432  15.055  13.298
  147PROX   H3117593  15.489  15.042  13.204
  147PROX   H3217594  15.378  15.153  13.299
  147PROX   H3317595  15.519  15.062  13.367
  148PROX    O117596  15.242  14.935  13.218
  148PROX    C117597  15.193  14.802  13.192
  148PROX   H1117598  15.274  14.726  13.183
  148PROX   H1317599  15.133  14.767  13.278
  148PROX    C217600  15.102  14.793  13.066
  148PROX   H2117601  15.003  14.830  13.099
  148PROX    C317602  15.075  14.655  13.000
  148PROX   H3117603  15.159  14.625  12.933
  148PROX   H3217604  15.058  14.584  13.084
  148PROX   H3317605  14.985  14.678  12.940
  149PROX    O117606  15.143  14.882  12.964
  149PROX    C117607  15.035  14.965  12.919
  149PROX   H1117608  14.945  14.906  12.892
  149PROX   H1317609  15.006  15.048  12.987
  149PROX    C217610  15.074  15.047  12.790
  149PROX   H2117611  15.092  14.972  12.710
  149PROX    C317612  15.195  15.130  12.810
  149PROX   H3117613  15.233  15.178  12.717
  149PROX   H3217614  15.175  15.214  12.880
  149PROX   H3317615  15.275  15.078  12.867
  150PROX    O117616  14.979  15.143  12.755
  150PROX    C117617  14.876  15.080  12.681
  150PROX   H1117618  14.912  15.041  12.583
  150PROX   H1317619  14.830  15.003  12.747
  150PROX    C217620  14.760  15.178  12.653
  150PROX   H2117621  14.802  15.253  12.582
  150PROX    C317622  14.700  15.255  12.768
  150PROX   H3117623  14.638  15.194  12.837
  150PROX   H3217624  14.787  15.276  12.835
  150PROX   H3317625  14.644  15.347  12.740
  151PROX    O117626  14.653  15.105  12.580
  151PROX    C117627  14.560  15.190  12.523
  151PROX   H1117628  14.468  15.184  12.586
  151PROX   H1317629  14.593  15.296  12.523
  151PROX    C217630  14.510  15.139  12.383
  151PROX   H2117631  14.415  15.197  12.373
  151PROX    C317632  14.482  14.986  12.375
  151PROX   H3117633  14.411  14.953  12.454
  151PROX   H3217634  14.440  14.961  12.275
  151PROX   H3317635  14.575  14.929  12.394
  152PROX    O117636  14.597  15.181  12.270
  152PROX    C117637  14.711  15.099  12.265
  152PROX   H1117638  14.739  15.084  12.371
  152PROX   H1317639  14.698  14.998  12.219
  152PROX    C217640  14.829  15.170  12.221
  152PROX   H2117641  14.814  15.279  12.236
  152PROX    C317642  14.853  15.161  12.073
  152PROX   H3117643  14.769  15.200  12.011
  152PROX   H3217644  14.935  15.224  12.035
  152PROX   H3317645  14.877  15.056  12.045
  153PROX    O117646  14.942  15.117  12.295
  153PROX    C117647  15.049  15.208  12.318
  153PROX   H1117648  15.080  15.240  12.217
  153PROX   H1317649  15.023  15.299  12.377
  153PROX    C217650  15.168  15.137  12.383
  153PROX   H2117651  15.131  15.071  12.464
  153PROX    C317652  15.271  15.237  12.439
  153PROX   H3117653  15.364  15.187  12.475
  153PROX   H3217654  15.311  15.290  12.351
  153PROX   H3317655  15.237  15.315  12.511
  154PROX    O117656  15.222  15.053  12.281
  154PROX    C117657  15.315  14.954  12.326
  154PROX   H1117658  15.372  14.916  12.238
  154PROX   H1317659  15.398  15.000  12.382
  154PROX    C217660  15.252  14.846  12.408
  154PROX   H2117661  15.183  14.874  12.490
  154PROX    C317662  15.358  14.761  12.481
  154PROX   H3117663  15.437  14.713  12.419
  154PROX   H3217664  15.402  14.820  12.565
  154PROX   H3317665  15.313  14.676  12.535
  155PROX    O117666  15.184  14.760  12.324
  155PROX    C117667  15.046  14.794  12.296
  155PROX   H1117668  14.989  14.815  12.389
  155PROX   H1317669  15.049  14.878  12.223
  155PROX    C217670  14.974  14.674  12.221
  155PROX   H2117671  15.042  14.649  12.136
  155PROX    C317672  14.838  14.710  12.156
  155PROX   H3117673  14.777  14.764  12.231
  155PROX   H3217674  14.861  14.781  12.074
  155PROX   H3317675  14.794  14.619  12.110
  156PROX    O117676  14.951  14.558  12.300
  156PROX    C117677  15.074  14.491  12.348
  156PROX   H1117678  15.163  14.507  12.283
  156PROX   H1317679  15.097  14.524  12.451
  156PROX    C217680  15.056  14.329  12.359
  156PROX   H2117681  15.143  14.298  12.420
  156PROX    C317682  15.062  14.248  12.235
  156PROX   H3117683  14.968  14.254  12.175
  156PROX   H3217684  15.138  14.282  12.161
  156PROX   H3317685  15.082  14.140  12.255
  157PROX    O117686  14.939  14.300  12.433
  157PROX    C117687  14.922  14.166  12.473
  157PROX   H1117688  14.844  14.162  12.552
  157PROX   H1317689  14.886  14.098  12.392
  157PROX    C217690  15.041  14.106  12.552
  157PROX   H2117691  15.132  14.083  12.493
  157PROX    C317692  14.999  13.973  12.613
  157PROX   H3117693  14.914  13.999  12.679
  157PROX   H3217694  14.968  13.909  12.528
  157PROX   H3317695  15.078  13.925  12.673
  158PROX    O117696  15.070  14.193  12.661
  158PROX    C117697  15.190  14.170  12.733
  158PROX   H1117698  15.188  14.084  12.804
  158PROX   H1317699  15.278  14.176  12.665
  158PROX    C217700  15.215  14.299  12.824
  158PROX   H2117701  15.124  14.320  12.883
  158PROX    C317702  15.243  14.423  12.756
  158PROX   H3117703  15.173  14.435  12.671
  158PROX   H3217704  15.268  14.506  12.825
  158PROX   H3317705  15.333  14.404  12.693
  159PROX    O117706  15.317  14.267  12.911
  159PROX    C117707  15.317  14.337  13.032
  159PROX   H1117708  15.337  14.443  13.008
  159PROX   H1317709  15.220  14.326  13.085
  159PROX    C217710  15.435  14.285  13.114
  159PROX   H2117711  15.530  14.330  13.078
  159PROX    C317712  15.458  14.131  13.133
  159PROX   H3117713  15.359  14.083  13.147
  159PROX   H3217714  15.513  14.090  13.046
  159PROX   H3317715  15.509  14.117  13.231
  160PROX    O117716  15.417  14.332  13.252
  160PROX    C117717  15.443  14.468  13.263
  160PROX   H1117718  15.551  14.485  13.244
  160PROX   H1317719  15.374  14.524  13.196
  160PROX    C217720  15.424  14.511  13.409
  160PROX   H2117721  15.477  14.439  13.475
  160PROX    C317722  15.278  14.523  13.440
  160PROX   H3117723  15.225  14.584  13.362
  160PROX   H3217724  15.234  14.421  13.432
  160PROX   H3317725  15.256  14.566  13.540
  161PROX    O117726  15.487  14.636  13.419
  161PROX    C117727  15.518  14.660  13.557
  161PROX   H1117728  15.492  14.768  13.562
  161PROX   H1317729  15.450  14.607  13.626
  161PROX    C217730  15.669  14.644  13.597
  161PROX   H2117731  15.734  14.699  13.527
  161PROX    C317732  15.729  14.497  13.609
  161PROX   H3117733  15.838  14.503  13.630
  161PROX   H3217734  15.681  14.438  13.691
  161PROX   H3317735  15.720  14.446  13.510
  162PROX    O117736  15.681  14.700  13.725
  162PROX    C117737  15.761  14.817  13.748
  162PROX   H1117738  15.757  14.824  13.859
  162PROX   H1317739  15.866  14.800  13.714
  162PROX    C217740  15.719  14.956  13.683
  162PROX   H2117741  15.792  15.038  13.702
  162PROX    C317742  15.583  14.997  13.744
  162PROX   H3117743  15.565  15.107  13.742
  162PROX   H3217744  15.504  14.936  13.695
  162PROX   H3317745  15.590  14.973  13.853
  163PROX    O117746  15.722  14.946  13.535
  163PROX    C117747  15.850  14.957  13.477
  163PROX   H1117748  15.902  15.047  13.515
  163PROX   H1317749  15.900  14.862  13.505
  163PROX    C217750  15.838  14.958  13.327
  163PROX   H2117751  15.756  15.032  13.322
  163PROX    C317752  15.803  14.822  13.269
  163PROX   H3117753  15.702  14.793  13.306
  163PROX   H3217754  15.797  14.839  13.159
  163PROX   H3317755  15.882  14.749  13.297
  164PROX    O117756  15.949  15.008  13.262
  164PROX    C117757  16.061  14.917  13.261
  164PROX   H1117758  16.065  14.853  13.352
  164PROX   H1317759  16.052  14.858  13.168
  164PROX    C217760  16.198  14.991  13.268
  164PROX   H2117761  16.203  15.047  13.364
  164PROX    C317762  16.209  15.091  13.147
  164PROX   H3117763  16.129  15.169  13.150
  164PROX   H3217764  16.299  15.155  13.141
  164PROX   H3317765  16.194  15.033  13.054
  165PROX    O117766  16.305  14.899  13.248
  165PROX    C117767  16.433  14.943  13.293
  165PROX   H1117768  16.456  15.043  13.251
  165PROX   H1317769  16.422  14.961  13.402
  165PROX    C217770  16.546  14.837  13.271
  165PROX   H2117771  16.557  14.825  13.161
  165PROX    C317772  16.502  14.706  13.342
  165PROX   H3117773  16.519  14.725  13.450
  165PROX   H3217774  16.398  14.676  13.321
  165PROX   H3317775  16.574  14.626  13.315
  166ETHO    O117776  16.664  14.895  13.321
  166ETHO    C117777  16.740  14.985  13.233
  166ETHO   H1117778  16.673  15.069  13.207
  166ETHO   H1317779  16.763  14.923  13.144
  166ETHO    C217780  16.876  15.049  13.291
  166ETHO   H2117781  16.944  14.962  13.301
  166ETHO   H2317782  16.861  15.107  13.384
  167ETHO    O117783  16.938  15.138  13.193
  167ETHO    C117784  17.069  15.179  13.230
  167ETHO   H1117785  17.105  15.130  13.323
  167ETHO   H1317786  17.139  15.155  13.147
  167ETHO    C217787  17.063  15.331  13.255
  167ETHO   H2117788  17.146  15.363  13.322
  167ETHO   H2317789  16.968  15.350  13.309
  168ETHO    O117790  17.071  15.406  13.137
  168ETHO    C117791  17.054  15.546  13.152
  168ETHO   H1117792  16.977  15.569  13.229
  168ETHO   H1317793  17.014  15.572  13.052
  168ETHO    C217794  17.192  15.618  13.165
  168ETHO   H2117795  17.245  15.594  13.070
  168ETHO   H2317796  17.244  15.562  13.245
  169ETHO    O117797  17.187  15.761  13.191
  169ETHO    C117798  17.183  15.820  13.060
  169ETHO   H1117799  17.282  15.807  13.011
  169ETHO   H1317800  17.102  15.768  13.004
  169ETHO    C217801  17.163  15.975  13.079
  169ETHO   H2117802  17.255  16.015  13.127
  169ETHO   H2317803  17.080  16.004  13.146
  170ETHO    O117804  17.142  16.048  12.960
  170ETHO    C117805  17.136  16.187  12.985
  170ETHO   H1117806  17.215  16.208  13.060
  170ETHO   H1317807  17.038  16.214  13.028
  170ETHO    C217808  17.147  16.278  12.862
  170ETHO   H2117809  17.100  16.375  12.892
  170ETHO   H2317810  17.086  16.244  12.776
  171ETHO    O117811  17.280  16.282  12.820
  171ETHO    C117812  17.311  16.221  12.700
  171ETHO   H1117813  17.268  16.119  12.704
  171ETHO   H1317814  17.275  16.286  12.618
  171ETHO    C217815  17.459  16.201  12.683
  171ETHO   H2117816  17.519  16.294  12.681
  171ETHO   H2317817  17.484  16.158  12.584
  172ETHO    O117818  17.496  16.119  12.795
  172ETHO    C117819  17.613  16.042  12.781
  172ETHO   H1117820  17.700  16.109  12.795
  172ETHO   H1317821  17.608  15.987  12.685
  172ETHO    C217822  17.616  15.946  12.896
  172ETHO   H2117823  17.670  15.851  12.874
  172ETHO   H2317824  17.513  15.907  12.913
  173ETHO    O117825  17.659  15.994  13.025
  173ETHO    C117826  17.632  15.894  13.128
  173ETHO   H1117827  17.524  15.893  13.156
  173ETHO   H1317828  17.660  15.791  13.096
  173ETHO    C217829  17.716  15.923  13.257
  173ETHO   H2117830  17.693  16.030  13.280
  173ETHO   H2317831  17.666  15.865  13.338
  174ETHO    O117832  17.860  15.886  13.261
  174ETHO    C117833  17.917  15.890  13.387
  174ETHO   H1117834  17.873  15.969  13.452
  174ETHO   H1317835  17.917  15.787  13.430
  174ETHO    C217836  18.068  15.927  13.354
  174ETHO   H2117837  18.062  15.999  13.269
  174ETHO   H2317838  18.128  15.843  13.314
  175ETHO    O117839  18.139  15.971  13.472
  175ETHO    C117840  18.277  15.930  13.472
  175ETHO   H1117841  18.303  15.827  13.440
  175ETHO   H1317842  18.343  15.997  13.412
  175ETHO    C217843  18.332  15.936  13.618
  175ETHO   H2117844  18.400  15.849  13.632
  175ETHO   H2317845  18.254  15.940  13.696
  176ETHO    O117846  18.416  16.044  13.651
  176ETHO    C117847  18.341  16.163  13.641
  176ETHO   H1117848  18.292  16.168  13.542
  176ETHO   H1317849  18.260  16.160  13.718
  176ETHO    C217850  18.435  16.276  13.671
  176ETHO   H2117851  18.501  16.296  13.584
  176ETHO   H2317852  18.500  16.245  13.755
  177ETHO    O117853  18.341  16.385  13.711
  177ETHO    C117854  18.414  16.484  13.786
  177ETHO   H1117855  18.397  16.582  13.737
  177ETHO   H1317856  18.524  16.469  13.785
  177ETHO    C217857  18.366  16.504  13.933
  177ETHO   H2117858  18.403  16.420  13.997
  177ETHO   H2317859  18.255  16.500  13.932
  178ETHO    O117860  18.412  16.625  13.978
  178ETHO    C117861  18.345  16.676  14.091
  178ETHO   H1117862  18.244  16.697  14.051
  178ETHO   H1317863  18.349  16.597  14.169
  178ETHO    C217864  18.418  16.808  14.134
  178ETHO   H2117865  18.379  16.874  14.214
  178ETHO   H2317866  18.418  16.871  14.043
  179ETHO    O117867  18.553  16.795  14.179
  179ETHO    C117868  18.566  16.721  14.299
  179ETHO   H1117869  18.553  16.612  14.287
  179ETHO   H1317870  18.504  16.768  14.378
  179ETHO    C217871  18.713  16.739  14.336
  179ETHO   H2117872  18.730  16.687  14.433
  179ETHO   H2317873  18.717  16.850  14.339
  180ETHO    O117874  18.790  16.691  14.230
  180ETHO    C117875  18.911  16.762  14.223
  180ETHO   H1117876  18.947  16.778  14.327
  180ETHO   H1317877  18.981  16.701  14.162
  180ETHO    C217878  18.890  16.910  14.173
  180ETHO   H2117879  18.815  16.974  14.224
  180ETHO   H2317880  18.851  16.898  14.069
  181ETHO    O117881  19.007  16.984  14.171
  181ETHO    C117882  18.967  17.118  14.140
  181ETHO   H1117883  18.906  17.172  14.215
  181ETHO   H1317884  18.910  17.119  14.045
  181ETHO    C217885  19.101  17.203  14.122
  181ETHO   H2117886  19.151  17.157  14.034
  181ETHO   H2317887  19.165  17.207  14.212
  182ETHO    O117888  19.067  17.342  14.096
  182ETHO    C117889  19.180  17.424  14.087
  182ETHO   H1117890  19.261  17.378  14.027
  182ETHO   H1317891  19.160  17.512  14.022
  182ETHO    C217892  19.247  17.465  14.221
  182ETHO   H2117893  19.358  17.460  14.210
  182ETHO   H2317894  19.208  17.388  14.290
  183ETHO    O117895  19.210  17.600  14.264
  183ETHO    C117896  19.259  17.633  14.390
  183ETHO   H1117897  19.370  17.632  14.388
  183ETHO   H1317898  19.216  17.561  14.464
  183ETHO    C217899  19.199  17.772  14.432
  183ETHO   H2117900  19.193  17.777  14.543
  183ETHO   H2317901  19.092  17.786  14.403
  184ETHO    O117902  19.272  17.885  14.397
  184ETHO    C117903  19.253  17.919  14.265
  184ETHO   H1117904  19.322  17.859  14.202
  184ETHO   H1317905  19.148  17.890  14.242
  184ETHO    C217906  19.266  18.068  14.224
  184ETHO   H2117907  19.192  18.119  14.289
  184ETHO   H2317908  19.256  18.085  14.114
  185ETHO    O117909  19.388  18.127  14.251
  185ETHO    C117910  19.399  18.176  14.386
  185ETHO   H1117911  19.369  18.106  14.466
  185ETHO   H1317912  19.508  18.190  14.403
  185ETHO    C217913  19.333  18.314  14.409
  185ETHO   H2117914  19.378  18.395  14.348
  185ETHO   H2317915  19.352  18.341  14.515
  186ETHO    O117916  19.192  18.323  14.391
  186ETHO    C117917  19.112  18.291  14.503
  186ETHO   H1117918  19.138  18.201  14.563
  186ETHO   H1317919  19.124  18.381  14.566
  186ETHO    C217920  18.960  18.276  14.469
  186ETHO   H2117921  18.929  18.359  14.401
  186ETHO   H2317922  18.896  18.284  14.559
  187ETHO    O117923  18.938  18.140  14.413
  187ETHO    C117924  18.802  18.126  14.383
  187ETHO   H1117925  18.742  18.133  14.476
  187ETHO   H1317926  18.762  18.211  14.324
  187ETHO    C217927  18.777  17.978  14.333
  187ETHO   H2117928  18.827  17.905  14.401
  187ETHO   H2317929  18.826  17.951  14.237
  188ETHO    O117930  18.635  17.961  14.341
  188ETHO    C117931  18.600  17.830  14.302
  188ETHO   H1117932  18.633  17.759  14.381
  188ETHO   H1317933  18.651  17.791  14.212
  188ETHO    C217934  18.448  17.792  14.290
  188ETHO   H2117935  18.397  17.827  14.383
  188ETHO   H2317936  18.427  17.684  14.277
  189ETHO    O117937  18.391  17.864  14.179
  189ETHO    C117938  18.251  17.852  14.167
  189ETHO   H1117939  18.232  17.790  14.077
  189ETHO   H1317940  18.203  17.791  14.247
  189ETHO    C217941  18.180  17.982  14.166
  189ETHO   H2117942  18.210  18.054  14.245
  189ETHO   H2317943  18.070  17.967  14.177
  190ETHO    O117944  18.215  18.039  14.044
  190ETHO    C117945  18.147  18.158  14.012
  190ETHO   H1117946  18.223  18.232  13.980
  190ETHO   H1317947  18.099  18.204  14.101
  190ETHO    C217948  18.033  18.135  13.911
  190ETHO   H2117949  18.085  18.145  13.813
  190ETHO   H2317950  17.970  18.227  13.918
  191ETHO    O117951  17.951  18.020  13.900
  191ETHO    C117952  18.005  17.924  13.811
  191ETHO   H1117953  17.989  17.974  13.713
  191ETHO   H1317954  18.116  17.911  13.815
  191ETHO    C217955  17.916  17.800  13.813
  191ETHO   H2117956  17.886  17.758  13.911
  191ETHO   H2317957  17.975  17.718  13.765
  192ETHO    O117958  17.791  17.815  13.738
  192ETHO    C117959  17.739  17.686  13.710
  192ETHO   H1117960  17.777  17.612  13.784
  192ETHO   H1317961  17.772  17.670  13.605
  192ETHO    C217962  17.586  17.672  13.708
  192ETHO   H2117963  17.561  17.581  13.650
  192ETHO   H2317964  17.554  17.757  13.644
  193ETHO    O117965  17.527  17.684  13.836
  193ETHO    C117966  17.395  17.648  13.837
  193ETHO   H1117967  17.338  17.742  13.823
  193ETHO   H1317968  17.369  17.569  13.762
  193ETHO    C217969  17.348  17.604  13.976
  193ETHO   H2117970  17.237  17.604  13.986
  193ETHO   H2317971  17.378  17.672  14.059
  194ETHO    O117972  17.388  17.476  14.005
  194ETHO    C117973  17.341  17.427  14.133
  194ETHO   H1117974  17.233  17.402  14.126
  194ETHO   H1317975  17.340  17.500  14.217
  194ETHO    C217976  17.431  17.302  14.167
  194ETHO   H2117977  17.426  17.245  14.072
  194ETHO   H2317978  17.379  17.241  14.244
  195ETHO    O117979  17.559  17.340  14.209
  195ETHO    C117980  17.635  17.223  14.236
  195ETHO   H1117981  17.646  17.236  14.346
  195ETHO   H1317982  17.585  17.127  14.209
  195ETHO    C217983  17.760  17.222  14.156
  195ETHO   H2117984  17.834  17.155  14.206
  195ETHO   H2317985  17.804  17.324  14.146
  196ETHO    O117986  17.735  17.161  14.029
  196ETHO    C117987  17.688  17.252  13.930
  196ETHO   H1117988  17.644  17.344  13.976
  196ETHO   H1317989  17.769  17.289  13.863
  196ETHO    C217990  17.590  17.178  13.840
  196ETHO   H2117991  17.534  17.255  13.783
  196ETHO   H2317992  17.521  17.114  13.899
  197ETHO    O117993  17.651  17.100  13.746
  197ETHO    C117994  17.565  17.080  13.631
  197ETHO   H1117995  17.462  17.078  13.673
  197ETHO   H1317996  17.563  17.165  13.560
  197ETHO    C217997  17.595  16.950  13.551
  197ETHO   H2117998  17.507  16.918  13.492
  197ETHO   H2317999  17.610  16.864  13.620
  198ETHO    O118000  17.709  16.964  13.463
  198ETHO    C118001  17.674  17.003  13.334
  198ETHO   H1118002  17.680  16.910  13.274
  198ETHO   H1318003  17.573  17.050  13.327
  198ETHO    C218004  17.769  17.099  13.263
  198ETHO   H2118005  17.876  17.072  13.275
  198ETHO   H2318006  17.767  17.197  13.316
  199ETHO    O118007  17.723  17.107  13.123
  199ETHO    C118008  17.809  17.190  13.048
  199ETHO   H1118009  17.905  17.137  13.036
  199ETHO   H1318010  17.819  17.292  13.092
  199ETHO    C218011  17.740  17.209  12.913
  199ETHO   H2118012  17.709  17.109  12.874
  199ETHO   H2318013  17.808  17.238  12.830
  200ETHO    O118014  17.623  17.297  12.925
  200ETHO    C118015  17.575  17.336  12.794
  200ETHO   H1118016  17.521  17.431  12.813
  200ETHO   H1318017  17.654  17.361  12.720
  200ETHO    C218018  17.475  17.235  12.746
  200ETHO   H2118019  17.523  17.136  12.730
  200ETHO   H2318020  17.437  17.268  12.647
  201ETHO    O118021  17.374  17.217  12.838
  201ETHO    C118022  17.249  17.171  12.785
  201ETHO   H1118023  17.269  17.073  12.737
  201ETHO   H1318024  17.220  17.242  12.705
  201ETHO    C218025  17.137  17.181  12.888
  201ETHO   H2118026  17.047  17.154  12.828
  201ETHO   H2318027  17.119  17.281  12.932
  202ETHO    O118028  17.164  17.078  12.978
  202ETHO    C118029  17.060  17.051  13.060
  202ETHO   H1118030  17.027  17.147  13.105
  202ETHO   H1318031  16.984  16.981  13.019
  202ETHO    C218032  17.126  16.980  13.177
  202ETHO   H2118033  17.059  16.958  13.263
  202ETHO   H2318034  17.223  17.027  13.201
  203ETHO    O118035  17.157  16.847  13.134
  203ETHO    C118036  17.222  16.776  13.236
  203ETHO   H1118037  17.150  16.782  13.321
  203ETHO   H1318038  17.321  16.822  13.261
  203ETHO    C218039  17.257  16.635  13.195
  203ETHO   H2118040  17.159  16.599  13.157
  203ETHO   H2318041  17.283  16.572  13.282
  204ETHO    O118042  17.342  16.640  13.081
  204ETHO    C118043  17.377  16.514  13.044
  204ETHO   H1118044  17.447  16.473  13.121
  204ETHO   H1318045  17.291  16.446  13.026
  204ETHO    C218046  17.466  16.531  12.919
  204ETHO   H2118047  17.408  16.597  12.851
  204ETHO   H2318048  17.472  16.430  12.874
  205ETHO    O118049  17.600  16.574  12.934
  205ETHO    C118050  17.604  16.708  12.981
  205ETHO   H1118051  17.586  16.709  13.091
  205ETHO   H1318052  17.531  16.782  12.941
  205ETHO    C218053  17.749  16.768  12.962
  205ETHO   H2118054  17.817  16.688  12.997
  205ETHO   H2318055  17.750  16.855  13.031
  206ETHO    O118056  17.774  16.804  12.826
  206ETHO    C118057  17.907  16.857  12.817
  206ETHO   H1118058  17.915  16.937  12.893
  206ETHO   H1318059  17.967  16.768  12.845
  206ETHO    C218060  17.952  16.902  12.678
  206ETHO   H2118061  17.920  16.828  12.602
  206ETHO   H2318062  17.902  16.999  12.659
  207ETHO    O118063  18.093  16.919  12.663
  207ETHO    C118064  18.127  17.009  12.560
  207ETHO   H1118065  18.228  17.046  12.590
  207ETHO   H1318066  18.062  17.099  12.554
  207ETHO    C218067  18.122  16.918  12.435
  207ETHO   H2118068  18.113  16.977  12.341
  207ETHO   H2318069  18.028  16.859  12.430
  208ETHO    O118070  18.227  16.833  12.436
  208ETHO    C118071  18.344  16.886  12.383
  208ETHO   H1118072  18.327  16.891  12.273
  208ETHO   H1318073  18.366  16.982  12.435
  208ETHO    C218074  18.468  16.795  12.403
  208ETHO   H2118075  18.471  16.751  12.505
  208ETHO   H2318076  18.553  16.864  12.384
  209ETHO    O118077  18.471  16.678  12.317
  209ETHO    C118078  18.587  16.606  12.348
  209ETHO   H1118079  18.606  16.602  12.457
  209ETHO   H1318080  18.674  16.658  12.301
  209ETHO    C218081  18.585  16.463  12.297
  209ETHO   H2118082  18.687  16.421  12.312
  209ETHO   H2318083  18.566  16.458  12.187
  210ETHO    O118084  18.490  16.378  12.366
  210ETHO    C118085  18.545  16.307  12.467
  210ETHO   H1118086  18.576  16.211  12.420
  210ETHO   H1318087  18.633  16.355  12.515
  210ETHO    C218088  18.439  16.280  12.581
  210ETHO   H2118089  18.469  16.212  12.663
  210ETHO   H2318090  18.349  16.242  12.528
  211ETHO    O118091  18.402  16.406  12.646
  211ETHO    C118092  18.281  16.455  12.603
  211ETHO   H1118093  18.282  16.490  12.497
  211ETHO   H1318094  18.199  16.381  12.616
  211ETHO    C218095  18.240  16.582  12.688
  211ETHO   H2118096  18.153  16.630  12.638
  211ETHO   H2318097  18.325  16.654  12.694
  212ETHO    O118098  18.203  16.541  12.827
  212ETHO    C118099  18.067  16.492  12.817
  212ETHO   H1118100  17.998  16.552  12.754
  212ETHO   H1318101  18.073  16.391  12.770
  212ETHO    C218102  18.008  16.472  12.955
  212ETHO   H2118103  17.985  16.574  12.993
  212ETHO   H2318104  18.084  16.435  13.027
  213ETHO    O118105  17.888  16.393  12.950
  213ETHO    C118106  17.813  16.389  13.065
  213ETHO   H1118107  17.783  16.492  13.094
  213ETHO   H1318108  17.719  16.334  13.044
  213ETHO    C218109  17.882  16.329  13.185
  213ETHO   H2118110  17.928  16.232  13.158
  213ETHO   H2318111  17.814  16.318  13.273
  214ETHO    O118112  17.976  16.421  13.252
  214ETHO    C118113  18.063  16.360  13.345
  214ETHO   H1118114  18.114  16.267  13.310
  214ETHO   H1318115  18.011  16.337  13.441
  214ETHO    C218116  18.176  16.461  13.375
  214ETHO   H2118117  18.247  16.409  13.443
  214ETHO   H2318118  18.143  16.553  13.428
  215ETHO    O118119  18.264  16.503  13.264
  215ETHO    C118120  18.377  16.586  13.300
  215ETHO   H1118121  18.416  16.555  13.399
  215ETHO   H1318122  18.461  16.553  13.235
  215ETHO    C218123  18.361  16.737  13.282
  215ETHO   H2118124  18.436  16.796  13.340
  215ETHO   H2318125  18.266  16.767  13.331
  216ETHO    O118126  18.368  16.775  13.142
  216ETHO    C118127  18.272  16.874  13.103
  216ETHO   H1118128  18.287  16.962  13.170
  216ETHO   H1318129  18.168  16.834  13.112
  216ETHO    C218130  18.301  16.904  12.959
  216ETHO   H2118131  18.212  16.958  12.920
  216ETHO   H2318132  18.307  16.811  12.899
  217ETHO    O118133  18.409  16.985  12.948
  217ETHO    C118134  18.450  17.000  12.813
  217ETHO   H1118135  18.420  16.903  12.767
  217ETHO   H1318136  18.384  17.065  12.752
  217ETHO    C218137  18.597  17.028  12.786
  217ETHO   H2118138  18.655  17.018  12.880
  217ETHO   H2318139  18.620  17.128  12.744
  218ETHO    O118140  18.660  16.943  12.691
  218ETHO    C118141  18.786  16.997  12.650
  218ETHO   H1118142  18.825  17.060  12.732
  218ETHO   H1318143  18.765  17.072  12.570
  218ETHO    C218144  18.881  16.880  12.604
  218ETHO   H2118145  18.841  16.800  12.670
  218ETHO   H2318146  18.978  16.929  12.627
  219ETHO    O118147  18.875  16.823  12.476
  219ETHO    C118148  18.958  16.710  12.464
  219ETHO   H1118149  19.054  16.716  12.521
  219ETHO   H1318150  18.900  16.618  12.484
  219ETHO    C218151  19.017  16.700  12.322
  219ETHO   H2118152  18.941  16.735  12.249
  219ETHO   H2318153  19.034  16.591  12.308
  220ETHO    O118154  19.139  16.767  12.299
  220ETHO    C118155  19.117  16.904  12.263
  220ETHO   H1118156  19.178  16.968  12.331
  220ETHO   H1318157  19.010  16.933  12.263
  220ETHO    C218158  19.172  16.934  12.118
  220ETHO   H2118159  19.137  17.035  12.088
  220ETHO   H2318160  19.134  16.858  12.046
  221ETHO    O118161  19.311  16.941  12.109
  221ETHO    C118162  19.363  16.992  11.982
  221ETHO   H1118163  19.327  16.918  11.907
  221ETHO   H1318164  19.313  17.089  11.963
  221ETHO    C218165  19.511  17.022  11.985
  221ETHO   H2118166  19.540  17.109  12.047
  221ETHO   H2318167  19.527  17.047  11.878
  222ETHO    O118168  19.586  16.906  12.014
  222ETHO    C118169  19.719  16.921  11.974
  222ETHO   H1118170  19.716  16.930  11.864
  222ETHO   H1318171  19.762  17.017  12.009
  222ETHO    C218172  19.805  16.803  12.022
  222ETHO   H2118173  19.869  16.783  11.933
  222ETHO   H2318174  19.745  16.713  12.046
  223ETHO    O118175  19.890  16.827  12.137
  223ETHO    C118176  19.818  16.852  12.254
  223ETHO   H1118177  19.750  16.939  12.245
  223ETHO   H1318178  19.745  16.769  12.265
  223ETHO    C218179  19.910  16.851  12.371
  223ETHO   H2118180  19.947  16.747  12.387
  223ETHO   H2318181  19.860  16.884  12.464
  224ETHO    O118182  20.024  16.933  12.360
  224ETHO    C118183  20.095  16.916  12.479
  224ETHO   H1118184  20.051  16.974  12.563
  224ETHO   H1318185  20.116  16.810  12.503
  224ETHO    C218186  20.233  16.989  12.457
  224ETHO   H2118187  20.277  16.941  12.366
  224ETHO   H2318188  20.289  16.962  12.549
  225ETHO    O118189  20.236  17.130  12.438
  225ETHO    C118190  20.371  17.166  12.412
  225ETHO   H1118191  20.376  17.248  12.337
  225ETHO   H1318192  20.434  17.083  12.374
  225ETHO    C218193  20.437  17.229  12.536
  225ETHO   H2118194  20.546  17.220  12.520
  225ETHO   H2318195  20.415  17.192  12.639
  226ETHO    O118196  20.408  17.366  12.547
  226ETHO    C118197  20.492  17.414  12.651
  226ETHO   H1118198  20.586  17.358  12.673
  226ETHO   H1318199  20.538  17.505  12.607
  226ETHO    C218200  20.424  17.451  12.780
  226ETHO   H2118201  20.509  17.472  12.848
  226ETHO   H2318202  20.354  17.379  12.829
  227ETHO    O118203  20.355  17.577  12.748
  227ETHO    C118204  20.260  17.614  12.851
  227ETHO   H1118205  20.316  17.643  12.942
  227ETHO   H1318206  20.191  17.532  12.877
  227ETHO    C218207  20.179  17.737  12.798
  227ETHO   H2118208  20.243  17.820  12.761
  227ETHO   H2318209  20.134  17.771  12.894
  228ETHO    O118210  20.071  17.701  12.706
  228ETHO    C118211  19.947  17.650  12.767
  228ETHO   H1118212  19.982  17.561  12.823
  228ETHO   H1318213  19.906  17.729  12.834
  228ETHO    C218214  19.836  17.611  12.667
  228ETHO   H2118215  19.749  17.562  12.717
  228ETHO   H2318216  19.873  17.537  12.593
  229ETHO    O118217  19.803  17.729  12.592
  229ETHO    C118218  19.699  17.705  12.501
  229ETHO   H1118219  19.626  17.644  12.558
  229ETHO   H1318220  19.749  17.649  12.418
  229ETHO    C218221  19.632  17.830  12.438
  229ETHO   H2118222  19.581  17.791  12.347
  229ETHO   H2318223  19.705  17.909  12.412
  230ETHO    O118224  19.521  17.873  12.519
  230ETHO    C118225  19.465  17.988  12.460
  230ETHO   H1118226  19.480  17.981  12.350
  230ETHO   H1318227  19.358  17.994  12.487
  230ETHO    C218228  19.535  18.110  12.518
  230ETHO   H2118229  19.482  18.203  12.489
  230ETHO   H2318230  19.645  18.117  12.505
  231ETHO    O118231  19.503  18.102  12.655
  231ETHO    C118232  19.385  18.184  12.692
  231ETHO   H1118233  19.290  18.153  12.644
  231ETHO   H1318234  19.392  18.287  12.652
  231ETHO    C218235  19.366  18.175  12.843
  231ETHO   H2118236  19.360  18.067  12.866
  231ETHO   H2318237  19.270  18.225  12.868
  232ETHO    O118238  19.469  18.241  12.911
  232ETHO    C118239  19.438  18.260  13.044
  232ETHO   H1118240  19.334  18.300  13.049
  232ETHO   H1318241  19.446  18.159  13.088
  232ETHO    C218242  19.544  18.348  13.105
  232ETHO   H2118243  19.518  18.374  13.209
  232ETHO   H2318244  19.561  18.443  13.050
  233ETHO    O118245  19.666  18.276  13.105
  233ETHO    C118246  19.766  18.356  13.163
  233ETHO   H1118247  19.771  18.460  13.124
  233ETHO   H1318248  19.748  18.377  13.271
  233ETHO    C218249  19.906  18.305  13.142
  233ETHO   H2118250  19.932  18.214  13.199
  233ETHO   H2318251  19.973  18.384  13.183
  234ETHO    O118252  19.929  18.302  13.000
  234ETHO    C118253  20.036  18.210  12.977
  234ETHO   H1118254  20.127  18.238  13.034
  234ETHO   H1318255  20.016  18.106  13.010
  234ETHO    C218256  20.079  18.208  12.827
  234ETHO   H2118257  19.996  18.174  12.763
  234ETHO   H2318258  20.158  18.131  12.814
  235ETHO    O118259  20.127  18.339  12.778
  235ETHO    C118260  20.194  18.317  12.652
  235ETHO   H1118261  20.297  18.277  12.669
  235ETHO   H1318262  20.141  18.249  12.582
  235ETHO    C218263  20.218  18.450  12.575
  235ETHO   H2118264  20.118  18.496  12.556
  235ETHO   H2318265  20.269  18.432  12.478
  236ETHO    O118266  20.306  18.533  12.642
  236ETHO    C118267  20.422  18.558  12.565
  236ETHO   H1118268  20.384  18.619  12.480
  236ETHO   H1318269  20.460  18.461  12.528
  236ETHO    C218270  20.522  18.641  12.639
  236ETHO   H2118271  20.470  18.733  12.674
  236ETHO   H2318272  20.601  18.668  12.566
  237ETHO    O118273  20.580  18.557  12.735
  237ETHO    C118274  20.635  18.639  12.830
  237ETHO   H1118275  20.691  18.726  12.790
  237ETHO   H1318276  20.553  18.677  12.895
  237ETHO    C218277  20.721  18.547  12.921
  237ETHO   H2118278  20.682  18.443  12.929
  237ETHO   H2318279  20.713  18.587  13.024
  238ETHO    O118280  20.856  18.536  12.876
  238ETHO    C118281  20.935  18.445  12.943
  238ETHO   H1118282  20.887  18.345  12.936
  238ETHO   H1318283  20.948  18.476  13.049
  238ETHO    C218284  21.074  18.435  12.880
  238ETHO   H2118285  21.058  18.434  12.770
  238ETHO   H2318286  21.126  18.344  12.918
  239ETHO    O118287  21.157  18.548  12.908
  239ETHO    C118288  21.269  18.547  12.816
  239ETHO   H1118289  21.323  18.450  12.822
  239ETHO   H1318290  21.224  18.571  12.717
  239ETHO    C218291  21.361  18.665  12.850
  239ETHO   H2118292  21.430  18.669  12.763
  239ETHO   H2318293  21.312  18.765  12.857
  240ETHO    O118294  21.432  18.642  12.978
  240ETHO    C118295  21.559  18.697  12.977
  240ETHO   H1118296  21.562  18.806  12.960
  240ETHO   H1318297  21.609  18.642  12.894
  240ETHO    C218298  21.636  18.662  13.103
  240ETHO   H2118299  21.589  18.690  13.200
  240ETHO   H2318300  21.733  18.715  13.097
  241ETHO    O118301  21.678  18.521  13.111
  241ETHO    C118302  21.592  18.437  13.178
  241ETHO   H1118303  21.570  18.460  13.284
  241ETHO   H1318304  21.503  18.443  13.112
  241ETHO    C218305  21.642  18.296  13.180
  241ETHO   H2118306  21.669  18.250  13.083
  241ETHO   H2318307  21.561  18.245  13.236
  242ETHO    O118308  21.767  18.293  13.256
  242ETHO    C118309  21.835  18.174  13.242
  242ETHO   H1118310  21.859  18.157  13.135
  242ETHO   H1318311  21.776  18.086  13.275
  242ETHO    C218312  21.972  18.180  13.322
  242ETHO   H2118313  21.985  18.079  13.366
  242ETHO   H2318314  21.966  18.258  13.400
  243ETHO    O118315  22.075  18.205  13.227
  243ETHO    C118316  22.187  18.115  13.242
  243ETHO   H1118317  22.260  18.158  13.170
  243ETHO   H1318318  22.223  18.121  13.347
  243ETHO    C218319  22.161  17.976  13.201
  243ETHO   H2118320  22.092  17.973  13.115
  243ETHO   H2318321  22.113  17.924  13.288
  244ETHO    O118322  22.290  17.915  13.173
  244ETHO    C118323  22.288  17.785  13.108
  244ETHO   H1118324  22.392  17.747  13.113
  244ETHO   H1318325  22.254  17.788  13.003
  244ETHO    C218326  22.218  17.680  13.192
  244ETHO   H2118327  22.249  17.579  13.158
  244ETHO   H2318328  22.109  17.694  13.179
  245ETHO    O118329  22.257  17.691  13.328
  245ETHO    C118330  22.179  17.593  13.393
  245ETHO   H1118331  22.200  17.495  13.346
  245ETHO   H1318332  22.226  17.588  13.494
  245ETHO    C218333  22.030  17.628  13.418
  245ETHO   H2118334  22.022  17.737  13.398
  245ETHO   H2318335  22.005  17.595  13.521
  246ETHO    O118336  21.960  17.559  13.318
  246ETHO    C118337  21.865  17.462  13.360
  246ETHO   H1118338  21.770  17.511  13.388
  246ETHO   H1318339  21.902  17.390  13.436
  246ETHO    C218340  21.835  17.369  13.242
  246ETHO   H2118341  21.766  17.284  13.262
  246ETHO   H2318342  21.932  17.332  13.203
  247ETHO    O118343  21.778  17.439  13.133
  247ETHO    C118344  21.634  17.436  13.139
  247ETHO   H1118345  21.598  17.332  13.158
  247ETHO   H1318346  21.611  17.502  13.226
  247ETHO    C218347  21.566  17.491  13.012
  247ETHO   H2118348  21.627  17.575  12.974
  247ETHO   H2318349  21.573  17.420  12.928
  248ETHO    O118350  21.424  17.523  13.028
  248ETHO    C118351  21.401  17.643  13.110
  248ETHO   H1118352  21.450  17.640  13.209
  248ETHO   H1318353  21.449  17.732  13.062
  248ETHO    C218354  21.252  17.673  13.139
  248ETHO   H2118355  21.246  17.761  13.206
  248ETHO   H2318356  21.206  17.587  13.192
  249ETHO    O118357  21.174  17.688  13.023
  249ETHO    C118358  21.043  17.731  13.064
  249ETHO   H1118359  20.998  17.683  13.154
  249ETHO   H1318360  21.050  17.838  13.091
  249ETHO    C218361  20.943  17.732  12.950
  249ETHO   H2118362  20.946  17.635  12.894
  249ETHO   H2318363  20.973  17.809  12.876
  250ETHO    O118364  20.806  17.751  12.988
  250ETHO    C118365  20.719  17.713  12.880
  250ETHO   H1118366  20.760  17.747  12.782
  250ETHO   H1318367  20.693  17.605  12.877
  250ETHO    C218368  20.581  17.776  12.916
  250ETHO   H2118369  20.554  17.738  13.017
  250ETHO   H2318370  20.505  17.754  12.838
  251ETHO    O118371  20.594  17.917  12.924
  251ETHO    C118372  20.472  17.986  12.938
  251ETHO   H1118373  20.412  17.941  13.021
  251ETHO   H1318374  20.422  17.975  12.840
  251ETHO    C218375  20.487  18.140  12.968
  251ETHO   H2118376  20.386  18.185  12.952
  251ETHO   H2318377  20.551  18.183  12.888
  252ETHO    O118378  20.535  18.176  13.095
  252ETHO    C118379  20.672  18.169  13.107
  252ETHO   H1118380  20.703  18.064  13.087
  252ETHO   H1318381  20.707  18.244  13.033
  252ETHO    C218382  20.717  18.197  13.249
  252ETHO   H2118383  20.803  18.133  13.281
  252ETHO   H2318384  20.636  18.172  13.321
  253ETHO    O118385  20.743  18.335  13.266
  253ETHO    C118386  20.815  18.367  13.383
  253ETHO   H1118387  20.788  18.299  13.468
  253ETHO   H1318388  20.789  18.464  13.429
  253ETHO    C218389  20.971  18.382  13.369
  253ETHO   H2118390  21.025  18.408  13.463
  253ETHO   H2318391  20.978  18.467  13.298
  254ETHO    O118392  21.033  18.270  13.307
  254ETHO    C118393  21.167  18.284  13.272
  254ETHO   H1118394  21.180  18.371  13.205
  254ETHO   H1318395  21.227  18.319  13.359
  254ETHO    C218396  21.237  18.159  13.217
  254ETHO   H2118397  21.190  18.071  13.266
  254ETHO   H2318398  21.338  18.162  13.263
  255ETHO    O118399  21.235  18.159  13.077
  255ETHO    C118400  21.283  18.036  13.025
  255ETHO   H1118401  21.229  17.954  13.077
  255ETHO   H1318402  21.391  18.026  13.049
  255ETHO    C218403  21.263  18.037  12.869
  255ETHO   H2118404  21.328  17.960  12.822
  255ETHO   H2318405  21.299  18.134  12.829
  256ETHO    O118406  21.124  18.027  12.847
  256ETHO    C118407  21.088  18.022  12.714
  256ETHO   H1118408  21.155  17.952  12.658
  256ETHO   H1318409  20.982  17.989  12.714
  256ETHO    C218410  21.097  18.163  12.641
  256ETHO   H2118411  21.207  18.179  12.647
  256ETHO   H2318412  21.033  18.230  12.701
  257ETHO    O118413  21.062  18.155  12.503
  257ETHO    C118414  21.127  18.251  12.423
  257ETHO   H1118415  21.236  18.231  12.414
  257ETHO   H1318416  21.108  18.351  12.469
  257ETHO    C218417  21.068  18.235  12.282
  257ETHO   H2118418  21.083  18.337  12.240
  257ETHO   H2318419  20.958  18.232  12.295
  258ETHO    O118420  21.136  18.136  12.200
  258ETHO    C118421  21.097  18.149  12.067
  258ETHO   H1118422  20.986  18.155  12.072
  258ETHO   H1318423  21.126  18.249  12.029
  258ETHO    C218424  21.148  18.041  11.972
  258ETHO   H2118425  21.097  18.018  11.877
  258ETHO   H2318426  21.128  17.947  12.028
  259ETHO    O118427  21.292  18.035  11.948
  259ETHO    C118428  21.336  17.946  11.856
  259ETHO   H1118429  21.283  17.849  11.852
  259ETHO   H1318430  21.308  17.997  11.761
  259ETHO    C218431  21.487  17.937  11.865
  259ETHO   H2118432  21.538  18.036  11.869
  259ETHO   H2318433  21.525  17.900  11.768
  260ETHO    O118434  21.529  17.858  11.976
  260ETHO    C118435  21.667  17.814  11.969
  260ETHO   H1118436  21.689  17.766  11.871
  260ETHO   H1318437  21.730  17.904  11.987
  260ETHO    C218438  21.695  17.716  12.084
  260ETHO   H2118439  21.660  17.753  12.182
  260ETHO   H2318440  21.803  17.696  12.098
  261ETHO    O118441  21.637  17.592  12.049
  261ETHO    C118442  21.671  17.489  12.137
  261ETHO   H1118443  21.778  17.496  12.167
  261ETHO   H1318444  21.617  17.504  12.232
  261ETHO    C218445  21.647  17.335  12.095
  261ETHO   H2118446  21.720  17.284  12.162
  261ETHO   H2318447  21.695  17.333  11.995
  262ETHO    O118448  21.521  17.280  12.105
  262ETHO    C118449  21.526  17.139  12.089
  262ETHO   H1118450  21.596  17.103  12.168
  262ETHO   H1318451  21.581  17.113  11.996
  262ETHO    C218452  21.390  17.057  12.103
  262ETHO   H2118453  21.397  16.954  12.063
  262ETHO   H2318454  21.311  17.113  12.048
  263ETHO    O118455  21.360  17.047  12.243
  263ETHO    C118456  21.426  16.938  12.306
  263ETHO   H1118457  21.534  16.962  12.322
  263ETHO   H1318458  21.430  16.847  12.242
  263ETHO    C218459  21.370  16.896  12.442
  263ETHO   H2118460  21.424  16.804  12.474
  263ETHO   H2318461  21.262  16.867  12.444
  264ETHO    O118462  21.372  16.998  12.539
  264ETHO    C118463  21.323  16.957  12.663
  264ETHO   H1118464  21.383  16.867  12.690
  264ETHO   H1318465  21.217  16.924  12.662
  264ETHO    C218466  21.348  17.065  12.778
  264ETHO   H2118467  21.453  17.080  12.810
  264ETHO   H2318468  21.289  17.039  12.868
  265ETHO    O118469  21.290  17.188  12.730
  265ETHO    C118470  21.266  17.279  12.835
  265ETHO   H1118471  21.179  17.244  12.894
  265ETHO   H1318472  21.353  17.286  12.905
  265ETHO    C218473  21.224  17.415  12.777
  265ETHO   H2118474  21.303  17.466  12.718
  265ETHO   H2318475  21.204  17.489  12.858
  265ETHO    OZ18476  21.109  17.397  12.698
  265ETHO   HZ118477  21.083  17.480  12.656
    1ETHO    O118478   6.799  14.134  17.245
    1ETHO   HO118479   6.875  14.191  17.258
    1ETHO    C118480   6.690  14.216  17.267
    1ETHO   H1118481   6.722  14.317  17.300
    1ETHO   H1318482   6.619  14.177  17.343
    1ETHO    C218483   6.605  14.233  17.138
    1ETHO   H2118484   6.677  14.241  17.054
    1ETHO   H2318485   6.552  14.330  17.145
    2ETHO    O118486   6.506  14.129  17.120
    2ETHO    C118487   6.460  14.123  16.988
    2ETHO   H1118488   6.428  14.226  16.964
    2ETHO   H1318489   6.541  14.098  16.917
    2ETHO    C218490   6.348  14.021  16.965
    2ETHO   H2118491   6.321  14.030  16.858
    2ETHO   H2318492   6.253  14.037  17.020
    3ETHO    O118493   6.396  13.892  16.995
    3ETHO    C118494   6.305  13.801  16.937
    3ETHO   H1118495   6.298  13.818  16.828
    3ETHO   H1318496   6.210  13.832  16.986
    3ETHO    C218497   6.350  13.654  16.973
    3ETHO   H2118498   6.267  13.589  16.938
    3ETHO   H2318499   6.364  13.636  17.082
    4ETHO    O118500   6.462  13.619  16.893
    4ETHO    C118501   6.584  13.610  16.974
    4ETHO   H1118502   6.677  13.613  16.913
    4ETHO   H1318503   6.571  13.691  17.049
    4ETHO    C218504   6.580  13.483  17.049
    4ETHO   H2118505   6.477  13.453  17.078
    4ETHO   H2318506   6.626  13.517  17.145
    5ETHO    O118507   6.649  13.370  16.996
    5ETHO    C118508   6.596  13.298  16.889
    5ETHO   H1118509   6.497  13.268  16.929
    5ETHO   H1318510   6.574  13.359  16.799
    5ETHO    C218511   6.693  13.182  16.849
    5ETHO   H2118512   6.642  13.097  16.799
    5ETHO   H2318513   6.736  13.147  16.945
    6ETHO    O118514   6.793  13.235  16.766
    6ETHO    C118515   6.863  13.127  16.705
    6ETHO   H1118516   6.881  13.036  16.767
    6ETHO   H1318517   6.794  13.087  16.628
    6ETHO    C218518   6.992  13.171  16.636
    6ETHO   H2118519   7.046  13.080  16.601
    6ETHO   H2318520   7.058  13.231  16.702
    7ETHO    O118521   6.964  13.250  16.521
    7ETHO    C118522   7.088  13.269  16.445
    7ETHO   H1118523   7.160  13.316  16.515
    7ETHO   H1318524   7.129  13.171  16.413
    7ETHO    C218525   7.052  13.334  16.313
    7ETHO   H2118526   6.953  13.295  16.280
    7ETHO   H2318527   7.133  13.323  16.238
    8ETHO    O118528   7.041  13.475  16.334
    8ETHO    C118529   7.040  13.541  16.210
    8ETHO   H1118530   6.945  13.506  16.164
    8ETHO   H1318531   7.130  13.511  16.153
    8ETHO    C218532   7.030  13.687  16.230
    8ETHO   H2118533   6.943  13.711  16.295
    8ETHO   H2318534   7.003  13.739  16.136
    9ETHO    O118535   7.150  13.752  16.285
    9ETHO    C118536   7.138  13.894  16.295
    9ETHO   H1118537   7.117  13.939  16.196
    9ETHO   H1318538   7.055  13.928  16.362
    9ETHO    C218539   7.267  13.962  16.343
    9ETHO   H2118540   7.313  13.906  16.427
    9ETHO   H2318541   7.248  14.064  16.381
   10ETHO    O118542   7.353  13.962  16.231
   10ETHO    C118543   7.490  13.995  16.251
   10ETHO   H1118544   7.530  13.905  16.302
   10ETHO   H1318545   7.502  14.084  16.316
   10ETHO    C218546   7.566  14.004  16.116
   10ETHO   H2118547   7.540  13.922  16.046
   10ETHO   H2318548   7.673  13.983  16.138
   11ETHO    O118549   7.553  14.134  16.058
   11ETHO    C118550   7.491  14.138  15.928
   11ETHO   H1118551   7.548  14.062  15.869
   11ETHO   H1318552   7.383  14.113  15.936
   11ETHO    C218553   7.501  14.277  15.860
   11ETHO   H2118554   7.438  14.259  15.771
   11ETHO   H2318555   7.453  14.339  15.938
   12ETHO    O118556   7.637  14.315  15.822
   12ETHO    C118557   7.640  14.435  15.741
   12ETHO   H1118558   7.638  14.528  15.801
   12ETHO   H1318559   7.568  14.431  15.656
   12ETHO    C218560   7.772  14.428  15.662
   12ETHO   H2118561   7.781  14.494  15.573
   12ETHO   H2318562   7.771  14.322  15.631
   13ETHO    O118563   7.890  14.464  15.729
   13ETHO    C118564   8.006  14.443  15.649
   13ETHO   H1118565   7.988  14.349  15.592
   13ETHO   H1318566   8.016  14.524  15.574
   13ETHO    C218567   8.136  14.417  15.735
   13ETHO   H2118568   8.217  14.367  15.677
   13ETHO   H2318569   8.115  14.358  15.827
   14ETHO    O118570   8.184  14.536  15.783
   14ETHO    C118571   8.319  14.528  15.821
   14ETHO   H1118572   8.389  14.555  15.740
   14ETHO   H1318573   8.338  14.426  15.861
   14ETHO    C218574   8.340  14.634  15.928
   14ETHO   H2118575   8.307  14.733  15.889
   14ETHO   H2318576   8.448  14.631  15.953
   15ETHO    O118577   8.268  14.617  16.043
   15ETHO    C118578   8.305  14.711  16.143
   15ETHO   H1118579   8.416  14.710  16.156
   15ETHO   H1318580   8.282  14.815  16.113
   15ETHO    C218581   8.226  14.689  16.273
   15ETHO   H2118582   8.235  14.582  16.303
   15ETHO   H2318583   8.273  14.737  16.362
   16ETHO    O118584   8.088  14.728  16.267
   16ETHO    C118585   8.007  14.690  16.374
   16ETHO   H1118586   7.910  14.658  16.331
   16ETHO   H1318587   8.044  14.599  16.426
   16ETHO    C218588   7.982  14.801  16.477
   16ETHO   H2118589   8.068  14.871  16.486
   16ETHO   H2318590   7.962  14.767  16.581
   17ETHO    O118591   7.862  14.871  16.443
   17ETHO    C118592   7.825  14.961  16.544
   17ETHO   H1118593   7.782  14.907  16.631
   17ETHO   H1318594   7.907  15.007  16.604
   17ETHO    C218595   7.737  15.063  16.486
   17ETHO   H2118596   7.724  15.146  16.559
   17ETHO   H2318597   7.637  15.018  16.467
   18ETHO    O118598   7.784  15.122  16.364
   18ETHO    C118599   7.683  15.157  16.273
   18ETHO   H1118600   7.657  15.057  16.231
   18ETHO   H1318601   7.592  15.197  16.321
   18ETHO    C218602   7.737  15.240  16.153
   18ETHO   H2118603   7.664  15.236  16.069
   18ETHO   H2318604   7.835  15.195  16.128
   19ETHO    O118605   7.763  15.375  16.195
   19ETHO    C118606   7.826  15.449  16.090
   19ETHO   H1118607   7.777  15.429  15.991
   19ETHO   H1318608   7.934  15.424  16.088
   19ETHO    C218609   7.817  15.600  16.128
   19ETHO   H2118610   7.885  15.647  16.054
   19ETHO   H2318611   7.861  15.613  16.229
   20ETHO    O118612   7.686  15.655  16.105
   20ETHO    C118613   7.621  15.672  16.227
   20ETHO   H1118614   7.697  15.706  16.301
   20ETHO   H1318615   7.548  15.755  16.222
   20ETHO    C218616   7.528  15.565  16.284
   20ETHO   H2118617   7.527  15.559  16.395
   20ETHO   H2318618   7.568  15.470  16.241
   21ETHO    O118619   7.398  15.585  16.242
   21ETHO    C118620   7.308  15.481  16.282
   21ETHO   H1118621   7.296  15.500  16.391
   21ETHO   H1318622   7.355  15.383  16.256
   21ETHO    C218623   7.194  15.495  16.184
   21ETHO   H2118624   7.147  15.395  16.173
   21ETHO   H2318625   7.234  15.519  16.083
   22ETHO    O118626   7.111  15.594  16.233
   22ETHO    C118627   7.007  15.622  16.145
   22ETHO   H1118628   7.021  15.721  16.096
   22ETHO   H1318629   6.988  15.533  16.082
   22ETHO    C218630   6.880  15.644  16.237
   22ETHO   H2118631   6.895  15.721  16.316
   22ETHO   H2318632   6.789  15.663  16.177
   23ETHO    O118633   6.844  15.519  16.293
   23ETHO    C118634   6.718  15.521  16.352
   23ETHO   H1118635   6.700  15.618  16.402
   23ETHO   H1318636   6.727  15.441  16.429
   23ETHO    C218637   6.604  15.495  16.256
   23ETHO   H2118638   6.617  15.395  16.210
   23ETHO   H2318639   6.595  15.575  16.180
   24ETHO    O118640   6.489  15.477  16.332
   24ETHO    C118641   6.374  15.457  16.255
   24ETHO   H1118642   6.332  15.551  16.214
   24ETHO   H1318643   6.415  15.393  16.174
   24ETHO    C218644   6.265  15.390  16.345
   24ETHO   H2118645   6.328  15.315  16.398
   24ETHO   H2318646   6.195  15.337  16.276
   25ETHO    O118647   6.188  15.478  16.423
   25ETHO    C118648   6.157  15.414  16.549
   25ETHO   H1118649   6.251  15.391  16.603
   25ETHO   H1318650   6.100  15.319  16.543
   25ETHO    C218651   6.086  15.515  16.636
   25ETHO   H2118652   6.141  15.610  16.625
   25ETHO   H2318653   6.094  15.485  16.743
   26ETHO    O118654   5.945  15.534  16.593
   26ETHO    C118655   5.872  15.626  16.676
   26ETHO   H1118656   5.938  15.715  16.684
   26ETHO   H1318657   5.780  15.665  16.628
   26ETHO    C218658   5.823  15.577  16.804
   26ETHO   H2118659   5.752  15.493  16.792
   26ETHO   H2318660   5.774  15.661  16.858
   27ETHO    O118661   5.926  15.539  16.897
   27ETHO    C118662   5.877  15.526  17.033
   27ETHO   H1118663   5.940  15.450  17.086
   27ETHO   H1318664   5.771  15.494  17.036
   27ETHO    C218665   5.902  15.663  17.121
   27ETHO   H2118666   6.008  15.694  17.106
   27ETHO   H2318667   5.877  15.642  17.227
   28ETHO    O118668   5.815  15.771  17.083
   28ETHO    C118669   5.833  15.885  17.162
   28ETHO   H1118670   5.741  15.946  17.158
   28ETHO   H1318671   5.854  15.861  17.268
   28ETHO    C218672   5.955  15.962  17.110
   28ETHO   H2118673   5.948  16.069  17.138
   28ETHO   H2318674   5.961  15.955  16.999
   29ETHO    O118675   6.070  15.916  17.178
   29ETHO    C118676   6.161  16.022  17.201
   29ETHO   H1118677   6.111  16.117  17.229
   29ETHO   H1318678   6.219  16.037  17.107
   29ETHO    C218679   6.268  15.996  17.303
   29ETHO   H2118680   6.329  16.089  17.302
   29ETHO   H2318681   6.323  15.906  17.270
   30ETHO    O118682   6.219  15.994  17.441
   30ETHO    C118683   6.256  15.869  17.511
   30ETHO   H1118684   6.328  15.816  17.446
   30ETHO   H1318685   6.302  15.890  17.610
   30ETHO    C218686   6.137  15.764  17.522
   30ETHO   H2118687   6.173  15.666  17.558
   30ETHO   H2318688   6.097  15.748  17.420
   31ETHO    O118689   6.024  15.807  17.604
   31ETHO    C118690   5.910  15.715  17.591
   31ETHO   H1118691   5.896  15.700  17.481
   31ETHO   H1318692   5.933  15.615  17.634
   31ETHO    C218693   5.785  15.778  17.654
   31ETHO   H2118694   5.827  15.821  17.747
   31ETHO   H2318695   5.707  15.701  17.670
   32ETHO    O118696   5.732  15.881  17.563
   32ETHO    C118697   5.630  15.955  17.625
   32ETHO   H1118698   5.551  15.886  17.662
   32ETHO   H1318699   5.670  16.012  17.711
   32ETHO    C218700   5.580  16.057  17.518
   32ETHO   H2118701   5.658  16.127  17.483
   32ETHO   H2318702   5.509  16.124  17.571
   33ETHO    O118703   5.517  15.992  17.406
   33ETHO    C118704   5.459  16.086  17.317
   33ETHO   H1118705   5.383  16.137  17.380
   33ETHO   H1318706   5.537  16.157  17.282
   33ETHO    C218707   5.394  16.038  17.174
   33ETHO   H2118708   5.364  16.133  17.125
   33ETHO   H2318709   5.310  15.969  17.199
   34ETHO    O118710   5.504  15.980  17.099
   34ETHO    C118711   5.460  15.951  16.969
   34ETHO   H1118712   5.410  16.036  16.917
   34ETHO   H1318713   5.390  15.866  16.979
   34ETHO    C218714   5.583  15.912  16.878
   34ETHO   H2118715   5.537  15.868  16.787
   34ETHO   H2318716   5.642  15.835  16.932
   35ETHO    O118717   5.673  16.010  16.826
   35ETHO    C118718   5.776  15.951  16.756
   35ETHO   H1118719   5.844  15.905  16.832
   35ETHO   H1318720   5.735  15.870  16.693
   35ETHO    C218721   5.852  16.044  16.665
   35ETHO   H2118722   5.780  16.081  16.589
   35ETHO   H2318723   5.921  15.981  16.604
   36ETHO    O118724   5.930  16.150  16.729
   36ETHO    C118725   6.016  16.213  16.642
   36ETHO   H1118726   5.981  16.317  16.622
   36ETHO   H1318727   6.027  16.151  16.551
   36ETHO    C218728   6.161  16.227  16.705
   36ETHO   H2118729   6.248  16.255  16.642
   36ETHO   H2318730   6.192  16.132  16.754
   37ETHO    O118731   6.162  16.319  16.812
   37ETHO    C118732   6.271  16.286  16.899
   37ETHO   H1118733   6.235  16.205  16.965
   37ETHO   H1318734   6.361  16.249  16.846
   37ETHO    C218735   6.319  16.414  16.979
   37ETHO   H2118736   6.398  16.391  17.055
   37ETHO   H2318737   6.232  16.460  17.030
   38ETHO    O118738   6.373  16.510  16.898
   38ETHO    C118739   6.421  16.619  16.969
   38ETHO   H1118740   6.527  16.614  17.003
   38ETHO   H1318741   6.372  16.629  17.069
   38ETHO    C218742   6.393  16.745  16.891
   38ETHO   H2118743   6.430  16.834  16.946
   38ETHO   H2318744   6.283  16.751  16.874
   39ETHO    O118745   6.454  16.748  16.759
   39ETHO    C118746   6.421  16.874  16.698
   39ETHO   H1118747   6.319  16.908  16.725
   39ETHO   H1318748   6.496  16.954  16.721
   39ETHO    C218749   6.416  16.861  16.541
   39ETHO   H2118750   6.501  16.806  16.495
   39ETHO   H2318751   6.419  16.961  16.494
   40ETHO    O118752   6.288  16.802  16.512
   40ETHO    C118753   6.271  16.794  16.370
   40ETHO   H1118754   6.367  16.761  16.326
   40ETHO   H1318755   6.228  16.889  16.331
   40ETHO    C218756   6.176  16.675  16.346
   40ETHO   H2118757   6.128  16.684  16.246
   40ETHO   H2318758   6.100  16.670  16.427
   41ETHO    O118759   6.252  16.553  16.348
   41ETHO    C118760   6.171  16.438  16.351
   41ETHO   H1118761   6.113  16.432  16.446
   41ETHO   H1318762   6.093  16.452  16.273
   41ETHO    C218763   6.247  16.308  16.329
   41ETHO   H2118764   6.286  16.279  16.429
   41ETHO   H2318765   6.333  16.326  16.260
   42ETHO    O118766   6.169  16.206  16.268
   42ETHO    C118767   6.214  16.069  16.278
   42ETHO   H1118768   6.290  16.055  16.197
   42ETHO   H1318769   6.251  16.045  16.380
   42ETHO    C218770   6.111  15.967  16.261
   42ETHO   H2118771   6.174  15.875  16.260
   42ETHO   H2318772   6.053  15.976  16.166
   43ETHO    O118773   6.009  15.954  16.359
   43ETHO    C118774   5.920  15.844  16.335
   43ETHO   H1118775   5.852  15.834  16.422
   43ETHO   H1318776   5.859  15.862  16.244
   43ETHO    C218777   5.988  15.704  16.309
   43ETHO   H2118778   5.912  15.625  16.326
   43ETHO   H2318779   6.063  15.696  16.391
   44ETHO    O118780   6.057  15.681  16.186
   44ETHO    C118781   5.979  15.597  16.096
   44ETHO   H1118782   5.992  15.490  16.121
   44ETHO   H1318783   5.871  15.623  16.094
   44ETHO    C218784   6.038  15.611  15.951
   44ETHO   H2118785   6.034  15.718  15.921
   44ETHO   H2318786   5.986  15.555  15.870
   45ETHO    O118787   6.172  15.561  15.949
   45ETHO    C118788   6.244  15.604  15.832
   45ETHO   H1118789   6.176  15.600  15.743
   45ETHO   H1318790   6.315  15.524  15.806
   45ETHO    C218791   6.302  15.737  15.819
   45ETHO   H2118792   6.234  15.821  15.841
   45ETHO   H2318793   6.335  15.755  15.714
   46ETHO    O118794   6.419  15.762  15.899
   46ETHO    C118795   6.383  15.821  16.029
   46ETHO   H1118796   6.312  15.906  16.034
   46ETHO   H1318797   6.330  15.742  16.087
   46ETHO    C218798   6.515  15.864  16.097
   46ETHO   H2118799   6.582  15.935  16.045
   46ETHO   H2318800   6.569  15.768  16.113
   47ETHO    O118801   6.493  15.928  16.220
   47ETHO    C118802   6.618  15.980  16.269
   47ETHO   H1118803   6.637  16.069  16.206
   47ETHO   H1318804   6.699  15.904  16.266
   47ETHO    C218805   6.613  16.024  16.414
   47ETHO   H2118806   6.517  16.070  16.446
   47ETHO   H2318807   6.685  16.108  16.428
   48ETHO    O118808   6.642  15.914  16.499
   48ETHO    C118809   6.670  15.955  16.634
   48ETHO   H1118810   6.700  15.865  16.692
   48ETHO   H1318811   6.762  16.017  16.627
   48ETHO    C218812   6.565  16.049  16.707
   48ETHO   H2118813   6.470  15.994  16.723
   48ETHO   H2318814   6.612  16.061  16.807
   49ETHO    O118815   6.542  16.174  16.645
   49ETHO    C118816   6.611  16.279  16.715
   49ETHO   H1118817   6.720  16.267  16.692
   49ETHO   H1318818   6.590  16.268  16.823
   49ETHO    C218819   6.586  16.421  16.657
   49ETHO   H2118820   6.622  16.490  16.736
   49ETHO   H2318821   6.477  16.438  16.642
   50ETHO    O118822   6.653  16.446  16.535
   50ETHO    C118823   6.587  16.404  16.415
   50ETHO   H1118824   6.564  16.296  16.425
   50ETHO   H1318825   6.486  16.448  16.406
   50ETHO    C218826   6.663  16.450  16.290
   50ETHO   H2118827   6.662  16.561  16.286
   50ETHO   H2318828   6.613  16.400  16.204
   51ETHO    O118829   6.793  16.401  16.298
   51ETHO    C118830   6.855  16.411  16.166
   51ETHO   H1118831   6.821  16.509  16.125
   51ETHO   H1318832   6.806  16.344  16.093
   51ETHO    C218833   7.008  16.386  16.170
   51ETHO   H2118834   7.021  16.282  16.205
   51ETHO   H2318835   7.057  16.461  16.235
   52ETHO    O118836   7.069  16.399  16.046
   52ETHO    C118837   7.015  16.315  15.947
   52ETHO   H1118838   6.967  16.223  15.987
   52ETHO   H1318839   6.937  16.372  15.893
   52ETHO    C218840   7.124  16.266  15.848
   52ETHO   H2118841   7.085  16.198  15.770
   52ETHO   H2318842   7.197  16.200  15.900
   53ETHO    O118843   7.196  16.382  15.799
   53ETHO    C118844   7.304  16.340  15.723
   53ETHO   H1118845   7.385  16.300  15.787
   53ETHO   H1318846   7.272  16.263  15.650
   53ETHO    C218847   7.362  16.461  15.654
   53ETHO   H2118848   7.396  16.532  15.733
   53ETHO   H2318849   7.277  16.519  15.612
   54ETHO    O118850   7.457  16.440  15.553
   54ETHO    C118851   7.580  16.406  15.613
   54ETHO   H1118852   7.614  16.489  15.679
   54ETHO   H1318853   7.561  16.310  15.665
   54ETHO    C218854   7.696  16.378  15.519
   54ETHO   H2118855   7.797  16.376  15.567
   54ETHO   H2318856   7.696  16.450  15.435
   55ETHO    O118857   7.665  16.251  15.461
   55ETHO    C118858   7.779  16.217  15.379
   55ETHO   H1118859   7.772  16.259  15.276
   55ETHO   H1318860   7.872  16.255  15.427
   55ETHO    C218861   7.799  16.064  15.371
   55ETHO   H2118862   7.878  16.034  15.298
   55ETHO   H2318863   7.843  16.031  15.467
   56ETHO    O118864   7.674  15.988  15.359
   56ETHO    C118865   7.688  15.850  15.388
   56ETHO   H1118866   7.725  15.836  15.492
   56ETHO   H1318867   7.762  15.806  15.318
   56ETHO    C218868   7.557  15.770  15.363
   56ETHO   H2118869   7.472  15.824  15.410
   56ETHO   H2318870   7.576  15.674  15.415
   57ETHO    O118871   7.517  15.734  15.233
   57ETHO    C118872   7.620  15.664  15.168
   57ETHO   H1118873   7.719  15.712  15.153
   57ETHO   H1318874   7.635  15.572  15.228
   57ETHO    C218875   7.576  15.618  15.024
   57ETHO   H2118876   7.488  15.550  15.032
   57ETHO   H2318877   7.659  15.551  14.993
   58ETHO    O118878   7.559  15.715  14.927
   58ETHO    C118879   7.439  15.785  14.919
   58ETHO   H1118880   7.414  15.829  15.017
   58ETHO   H1318881   7.366  15.702  14.910
   58ETHO    C218882   7.421  15.890  14.802
   58ETHO   H2118883   7.499  15.969  14.800
   58ETHO   H2318884   7.320  15.935  14.810
   59ETHO    O118885   7.420  15.821  14.683
   59ETHO    C118886   7.417  15.898  14.565
   59ETHO   H1118887   7.517  15.949  14.566
   59ETHO   H1318888   7.386  15.832  14.481
   59ETHO    C218889   7.329  16.023  14.556
   59ETHO   H2118890   7.356  16.076  14.462
   59ETHO   H2318891   7.353  16.089  14.642
   60ETHO    O118892   7.197  15.984  14.560
   60ETHO    C118893   7.117  16.103  14.547
   60ETHO   H1118894   7.144  16.158  14.455
   60ETHO   H1318895   7.131  16.160  14.641
   60ETHO    C218896   6.976  16.042  14.547
   60ETHO   H2118897   6.974  15.939  14.506
   60ETHO   H2318898   6.909  16.102  14.481
   61ETHO    O118899   6.907  16.039  14.676
   61ETHO    C118900   6.964  15.959  14.775
   61ETHO   H1118901   6.912  15.863  14.758
   61ETHO   H1318902   7.073  15.936  14.765
   61ETHO    C218903   6.936  15.994  14.925
   61ETHO   H2118904   7.001  15.933  14.990
   61ETHO   H2318905   6.830  15.966  14.945
   62ETHO    O118906   6.960  16.127  14.973
   62ETHO    C118907   7.099  16.173  14.971
   62ETHO   H1118908   7.145  16.171  14.870
   62ETHO   H1318909   7.152  16.090  15.023
   62ETHO    C218910   7.114  16.309  15.042
   62ETHO   H2118911   7.068  16.390  14.981
   62ETHO   H2318912   7.221  16.339  15.040
   63ETHO    O118913   7.074  16.312  15.179
   63ETHO    C118914   7.100  16.440  15.244
   63ETHO   H1118915   7.205  16.456  15.274
   63ETHO   H1318916   7.067  16.519  15.173
   63ETHO    C218917   7.013  16.457  15.370
   63ETHO   H2118918   7.059  16.540  15.428
   63ETHO   H2318919   7.032  16.367  15.432
   64ETHO    O118920   6.879  16.470  15.334
   64ETHO    C118921   6.823  16.597  15.358
   64ETHO   H1118922   6.900  16.672  15.332
   64ETHO   H1318923   6.797  16.611  15.465
   64ETHO    C218924   6.702  16.630  15.271
   64ETHO   H2118925   6.718  16.594  15.167
   64ETHO   H2318926   6.672  16.737  15.276
   65ETHO    O118927   6.580  16.574  15.320
   65ETHO    C118928   6.461  16.583  15.239
   65ETHO   H1118929   6.444  16.688  15.207
   65ETHO   H1318930   6.470  16.517  15.150
   65ETHO    C218931   6.345  16.548  15.333
   65ETHO   H2118932   6.384  16.483  15.414
   65ETHO   H2318933   6.279  16.481  15.274
   66ETHO    O118934   6.279  16.659  15.400
   66ETHO    C118935   6.153  16.615  15.442
   66ETHO   H1118936   6.161  16.519  15.498
   66ETHO   H1318937   6.099  16.586  15.350
   66ETHO    C218938   6.071  16.722  15.517
   66ETHO   H2118939   6.035  16.796  15.442
   66ETHO   H2318940   6.131  16.765  15.601
   67ETHO    O118941   5.961  16.659  15.577
   67ETHO    C118942   5.857  16.749  15.612
   67ETHO   H1118943   5.893  16.828  15.683
   67ETHO   H1318944   5.814  16.800  15.524
   67ETHO    C218945   5.741  16.674  15.670
   67ETHO   H2118946   5.674  16.744  15.725
   67ETHO   H2318947   5.774  16.598  15.744
   68ETHO    O118948   5.667  16.627  15.556
   68ETHO    C118949   5.599  16.508  15.594
   68ETHO   H1118950   5.657  16.443  15.663
   68ETHO   H1318951   5.503  16.545  15.634
   68ETHO    C218952   5.547  16.441  15.469
   68ETHO   H2118953   5.482  16.357  15.503
   68ETHO   H2318954   5.635  16.407  15.410
   69ETHO    O118955   5.483  16.530  15.377
   69ETHO    C118956   5.425  16.450  15.275
   69ETHO   H1118957   5.442  16.502  15.178
   69ETHO   H1318958   5.469  16.350  15.255
   69ETHO    C218959   5.273  16.433  15.294
   69ETHO   H2118960   5.257  16.372  15.385
   69ETHO   H2318961   5.225  16.378  15.210
   70ETHO    O118962   5.211  16.553  15.281
   70ETHO    C118963   5.074  16.546  15.311
   70ETHO   H1118964   5.031  16.627  15.248
   70ETHO   H1318965   5.034  16.450  15.273
   70ETHO    C218966   5.020  16.568  15.453
   70ETHO   H2118967   5.097  16.513  15.511
   70ETHO   H2318968   4.927  16.510  15.470
   71ETHO    O118969   4.992  16.700  15.493
   71ETHO    C118970   5.000  16.708  15.633
   71ETHO   H1118971   5.104  16.743  15.652
   71ETHO   H1318972   4.974  16.614  15.686
   71ETHO    C218973   4.912  16.814  15.696
   71ETHO   H2118974   4.889  16.895  15.623
   71ETHO   H2318975   4.966  16.857  15.783
   72ETHO    O118976   4.787  16.763  15.737
   72ETHO    C118977   4.696  16.859  15.785
   72ETHO   H1118978   4.765  16.929  15.837
   72ETHO   H1318979   4.652  16.898  15.691
   72ETHO    C218980   4.578  16.809  15.873
   72ETHO   H2118981   4.533  16.714  15.837
   72ETHO   H2318982   4.491  16.879  15.864
   73ETHO    O118983   4.610  16.792  16.008
   73ETHO    C118984   4.492  16.803  16.087
   73ETHO   H1118985   4.423  16.723  16.053
   73ETHO   H1318986   4.445  16.903  16.072
   73ETHO    C218987   4.523  16.812  16.237
   73ETHO   H2118988   4.604  16.737  16.253
   73ETHO   H2318989   4.430  16.779  16.288
   74ETHO    O118990   4.563  16.942  16.265
   74ETHO    C118991   4.552  16.971  16.403
   74ETHO   H1118992   4.446  16.965  16.433
   74ETHO   H1318993   4.615  16.895  16.454
   74ETHO    C218994   4.606  17.109  16.428
   74ETHO   H2118995   4.690  17.125  16.358
   74ETHO   H2318996   4.653  17.127  16.527
   75ETHO    O118997   4.495  17.198  16.399
   75ETHO    C118998   4.540  17.317  16.334
   75ETHO   H1118999   4.444  17.356  16.296
   75ETHO   H1319000   4.608  17.290  16.250
   75ETHO    C219001   4.593  17.425  16.432
   75ETHO   H2119002   4.692  17.395  16.472
   75ETHO   H2319003   4.530  17.417  16.523
   76ETHO    O119004   4.587  17.554  16.368
   76ETHO    C119005   4.564  17.653  16.465
   76ETHO   H1119006   4.466  17.636  16.516
   76ETHO   H1319007   4.641  17.672  16.542
   76ETHO    C219008   4.541  17.793  16.392
   76ETHO   H2119009   4.509  17.862  16.472
   76ETHO   H2319010   4.456  17.781  16.321
   77ETHO    O119011   4.661  17.844  16.336
   77ETHO    C119012   4.640  17.978  16.300
   77ETHO   H1119013   4.595  18.030  16.387
   77ETHO   H1319014   4.563  17.969  16.220
   77ETHO    C219015   4.765  18.055  16.252
   77ETHO   H2119016   4.735  18.156  16.215
   77ETHO   H2319017   4.804  17.995  16.167
   78ETHO    O119018   4.859  18.071  16.357
   78ETHO    C119019   4.976  18.138  16.313
   78ETHO   H1119020   5.010  18.111  16.210
   78ETHO   H1319021   4.956  18.246  16.297
   78ETHO    C219022   5.088  18.102  16.411
   78ETHO   H2119023   5.054  18.118  16.516
   78ETHO   H2319024   5.161  18.180  16.382
   79ETHO    O119025   5.147  17.973  16.387
   79ETHO    C119026   5.240  17.945  16.495
   79ETHO   H1119027   5.261  18.040  16.549
   79ETHO   H1319028   5.206  17.869  16.569
   79ETHO    C219029   5.383  17.904  16.447
   79ETHO   H2119030   5.443  17.901  16.540
   79ETHO   H2319031   5.409  17.993  16.386
   80ETHO    O119032   5.381  17.779  16.374
   80ETHO    C119033   5.375  17.663  16.453
   80ETHO   H1119034   5.439  17.668  16.544
   80ETHO   H1319035   5.272  17.648  16.493
   80ETHO    C219036   5.408  17.541  16.373
   80ETHO   H2119037   5.490  17.565  16.302
   80ETHO   H2319038   5.327  17.504  16.307
   81ETHO    O119039   5.452  17.437  16.463
   81ETHO    C119040   5.344  17.387  16.531
   81ETHO   H1119041   5.338  17.438  16.629
   81ETHO   H1319042   5.252  17.405  16.471
   81ETHO    C219043   5.352  17.231  16.553
   81ETHO   H2119044   5.453  17.215  16.596
   81ETHO   H2319045   5.269  17.197  16.619
   82ETHO    O119046   5.335  17.175  16.427
   82ETHO    C119047   5.318  17.037  16.441
   82ETHO   H1119048   5.245  17.012  16.520
   82ETHO   H1319049   5.412  16.985  16.472
   82ETHO    C219050   5.262  16.959  16.316
   82ETHO   H2119051   5.180  17.019  16.271
   82ETHO   H2319052   5.248  16.854  16.348
   83ETHO    O119053   5.361  16.952  16.212
   83ETHO    C119054   5.317  16.863  16.105
   83ETHO   H1119055   5.308  16.759  16.145
   83ETHO   H1319056   5.221  16.895  16.058
   83ETHO    C219057   5.432  16.853  16.005
   83ETHO   H2119058   5.456  16.951  15.960
   83ETHO   H2319059   5.401  16.783  15.924
   84ETHO    O119060   5.553  16.796  16.060
   84ETHO    C119061   5.585  16.669  16.007
   84ETHO   H1119062   5.567  16.668  15.897
   84ETHO   H1319063   5.519  16.590  16.049
   84ETHO    C219064   5.729  16.641  16.045
   84ETHO   H2119065   5.764  16.536  16.055
   84ETHO   H2319066   5.737  16.681  16.148
   85ETHO    O119067   5.823  16.718  15.968
   85ETHO    C119068   5.956  16.676  15.987
   85ETHO   H1119069   6.023  16.758  15.956
   85ETHO   H1319070   5.969  16.667  16.097
   85ETHO    C219071   6.010  16.546  15.936
   85ETHO   H2119072   5.987  16.535  15.828
   85ETHO   H2319073   5.951  16.469  15.990
   86ETHO    O119074   6.144  16.525  15.978
   86ETHO    C119075   6.245  16.611  15.924
   86ETHO   H1119076   6.234  16.706  15.981
   86ETHO   H1319077   6.231  16.620  15.815
   86ETHO    C219078   6.387  16.548  15.953
   86ETHO   H2119079   6.419  16.540  16.059
   86ETHO   H2319080   6.468  16.605  15.902
   87ETHO    O119081   6.393  16.415  15.891
   87ETHO    C119082   6.483  16.329  15.953
   87ETHO   H1119083   6.583  16.379  15.960
   87ETHO   H1319084   6.449  16.299  16.055
   87ETHO    C219085   6.504  16.208  15.866
   87ETHO   H2119086   6.513  16.240  15.760
   87ETHO   H2319087   6.423  16.133  15.875
   88ETHO    O119088   6.634  16.149  15.893
   88ETHO    C119089   6.658  16.032  15.814
   88ETHO   H1119090   6.659  16.071  15.710
   88ETHO   H1319091   6.579  15.955  15.829
   88ETHO    C219092   6.805  15.990  15.840
   88ETHO   H2119093   6.815  15.880  15.842
   88ETHO   H2319094   6.830  16.017  15.944
   89ETHO    O119095   6.899  16.043  15.754
   89ETHO    C119096   6.900  15.980  15.629
   89ETHO   H1119097   6.903  15.870  15.640
   89ETHO   H1319098   6.809  16.008  15.572
   89ETHO    C219099   7.038  16.009  15.565
   89ETHO   H2119100   7.037  16.116  15.535
   89ETHO   H2319101   7.034  15.942  15.477
   90ETHO    O119102   7.148  15.981  15.656
   90ETHO    C119103   7.275  15.971  15.592
   90ETHO   H1119104   7.270  15.893  15.513
   90ETHO   H1319105   7.295  16.069  15.543
   90ETHO    C219106   7.385  15.932  15.688
   90ETHO   H2119107   7.363  15.971  15.790
   90ETHO   H2319108   7.479  15.979  15.652
   91ETHO    O119109   7.397  15.792  15.687
   91ETHO    C119110   7.507  15.772  15.780
   91ETHO   H1119111   7.597  15.833  15.754
   91ETHO   H1319112   7.477  15.801  15.883
   91ETHO    C219113   7.560  15.627  15.805
   91ETHO   H2119114   7.467  15.585  15.849
   91ETHO   H2319115   7.634  15.612  15.886
   92ETHO    O119116   7.602  15.565  15.684
   92ETHO    C119117   7.610  15.424  15.696
   92ETHO   H1119118   7.644  15.392  15.797
   92ETHO   H1319119   7.510  15.390  15.660
   92ETHO    C219120   7.715  15.368  15.596
   92ETHO   H2119121   7.811  15.422  15.614
   92ETHO   H2319122   7.688  15.410  15.497
   93ETHO    O119123   7.748  15.232  15.604
   93ETHO    C119124   7.796  15.181  15.486
   93ETHO   H1119125   7.866  15.252  15.437
   93ETHO   H1319126   7.717  15.174  15.408
   93ETHO    C219127   7.857  15.042  15.507
   93ETHO   H2119128   7.927  15.047  15.593
   93ETHO   H2319129   7.915  15.010  15.418
   94ETHO    O119130   7.753  14.947  15.518
   94ETHO    C119131   7.809  14.819  15.515
   94ETHO   H1119132   7.898  14.809  15.581
   94ETHO   H1319133   7.734  14.756  15.567
   94ETHO    C219134   7.834  14.769  15.369
   94ETHO   H2119135   7.916  14.822  15.315
   94ETHO   H2319136   7.736  14.764  15.317
   95ETHO    O119137   7.881  14.639  15.389
   95ETHO    C119138   7.901  14.562  15.267
   95ETHO   H1119139   7.974  14.619  15.206
   95ETHO   H1319140   7.811  14.540  15.205
   95ETHO    C219141   7.970  14.419  15.285
   95ETHO   H2119142   7.909  14.355  15.353
   95ETHO   H2319143   8.057  14.456  15.344
   96ETHO    O119144   8.013  14.355  15.160
   96ETHO    C119145   8.088  14.243  15.196
   96ETHO   H1119146   8.092  14.214  15.303
   96ETHO   H1319147   8.033  14.157  15.151
   96ETHO    C219148   8.225  14.256  15.121
   96ETHO   H2119149   8.289  14.175  15.162
   96ETHO   H2319150   8.272  14.351  15.155
   97ETHO    O119151   8.207  14.257  14.980
   97ETHO    C119152   8.337  14.244  14.917
   97ETHO   H1119153   8.385  14.148  14.945
   97ETHO   H1319154   8.401  14.327  14.952
   97ETHO    C219155   8.329  14.257  14.767
   97ETHO   H2119156   8.267  14.345  14.738
   97ETHO   H2319157   8.288  14.160  14.733
   98ETHO    O119158   8.460  14.269  14.707
   98ETHO    C119159   8.451  14.252  14.565
   98ETHO   H1119160   8.361  14.192  14.539
   98ETHO   H1319161   8.441  14.348  14.509
   98ETHO    C219162   8.573  14.176  14.506
   98ETHO   H2119163   8.581  14.074  14.549
   98ETHO   H2319164   8.664  14.236  14.526
   99ETHO    O119165   8.556  14.169  14.363
   99ETHO    C119166   8.619  14.272  14.291
   99ETHO   H1119167   8.729  14.256  14.289
   99ETHO   H1319168   8.598  14.372  14.335
   99ETHO    C219169   8.559  14.277  14.150
   99ETHO   H2119170   8.599  14.364  14.092
   99ETHO   H2319171   8.449  14.292  14.148
  100ETHO    O119172   8.596  14.163  14.074
  100ETHO    C119173   8.515  14.145  13.965
  100ETHO   H1119174   8.412  14.183  13.984
  100ETHO   H1319175   8.561  14.188  13.873
  100ETHO    C219176   8.501  13.983  13.956
  100ETHO   H2119177   8.442  13.953  13.867
  100ETHO   H2319178   8.445  13.942  14.042
  101PROX    O119179   8.626  13.917  13.956
  101PROX    C119180   8.698  13.930  13.835
  101PROX   H1119181   8.639  13.903  13.745
  101PROX   H1319182   8.722  14.038  13.823
  101PROX    C219183   8.832  13.853  13.836
  101PROX   H2119184   8.813  13.748  13.867
  101PROX    C319185   8.938  13.917  13.919
  101PROX   H3119186   9.037  13.879  13.887
  101PROX   H3219187   8.937  14.028  13.920
  101PROX   H3319188   8.926  13.887  14.026
  102PROX    O119189   8.884  13.840  13.705
  102PROX    C119190   8.828  13.735  13.627
  102PROX   H1119191   8.873  13.638  13.657
  102PROX   H1319192   8.717  13.738  13.632
  102PROX    C219193   8.859  13.768  13.486
  102PROX   H2119194   8.965  13.802  13.475
  102PROX    C319195   8.760  13.862  13.426
  102PROX   H3119196   8.791  13.903  13.328
  102PROX   H3219197   8.657  13.820  13.427
  102PROX   H3319198   8.759  13.951  13.492
  103PROX    O119199   8.846  13.646  13.416
  103PROX    C119200   8.928  13.648  13.296
  103PROX   H1119201   8.871  13.683  13.207
  103PROX   H1319202   9.011  13.722  13.299
  103PROX    C219203   9.002  13.514  13.259
  103PROX   H2119204   8.929  13.430  13.262
  103PROX    C319205   9.114  13.478  13.356
  103PROX   H3119206   9.188  13.561  13.356
  103PROX   H3219207   9.087  13.466  13.463
  103PROX   H3319208   9.179  13.393  13.328
  104PROX    O119209   9.056  13.528  13.131
  104PROX    C119210   8.965  13.492  13.028
  104PROX   H1119211   8.864  13.524  13.060
  104PROX   H1319212   8.991  13.555  12.941
  104PROX    C219213   8.977  13.342  12.984
  104PROX   H2119214   9.085  13.318  12.983
  104PROX    C319215   8.922  13.320  12.846
  104PROX   H3119216   8.945  13.220  12.803
  104PROX   H3219217   8.811  13.333  12.841
  104PROX   H3319218   8.969  13.394  12.779
  105PROX    O119219   8.903  13.261  13.078
  105PROX    C119220   8.940  13.122  13.055
  105PROX   H1119221   8.848  13.063  13.030
  105PROX   H1319222   9.018  13.107  12.978
  105PROX    C219223   9.011  13.064  13.189
  105PROX   H2119224   9.105  13.120  13.211
  105PROX    C319225   9.069  12.919  13.171
  105PROX   H3119226   9.139  12.913  13.085
  105PROX   H3219227   9.121  12.887  13.264
  105PROX   H3319228   8.976  12.858  13.163
  106PROX    O119229   8.911  13.062  13.295
  106PROX    C119230   8.967  13.078  13.420
  106PROX   H1119231   9.003  12.979  13.456
  106PROX   H1319232   9.051  13.150  13.422
  106PROX    C219233   8.855  13.115  13.519
  106PROX   H2119234   8.777  13.036  13.510
  106PROX    C319235   8.791  13.251  13.489
  106PROX   H3119236   8.856  13.337  13.513
  106PROX   H3219237   8.759  13.267  13.384
  106PROX   H3319238   8.696  13.252  13.547
  107PROX    O119239   8.913  13.121  13.651
  107PROX    C119240   8.824  13.129  13.759
  107PROX   H1119241   8.752  13.213  13.746
  107PROX   H1319242   8.755  13.042  13.757
  107PROX    C219243   8.889  13.136  13.901
  107PROX   H2119244   8.924  13.032  13.917
  107PROX    C319245   8.798  13.182  14.013
  107PROX   H3119246   8.848  13.178  14.112
  107PROX   H3219247   8.748  13.278  13.989
  107PROX   H3319248   8.712  13.112  14.011
  108PROX    O119249   9.008  13.209  13.900
  108PROX    C119250   9.000  13.341  13.860
  108PROX   H1119251   9.008  13.339  13.749
  108PROX   H1319252   8.902  13.387  13.885
  108PROX    C219253   9.131  13.413  13.915
  108PROX   H2119254   9.134  13.390  14.024
  108PROX    C319255   9.118  13.560  13.907
  108PROX   H3119256   9.099  13.597  13.804
  108PROX   H3219257   9.030  13.590  13.967
  108PROX   H3319258   9.204  13.617  13.948
  109PROX    O119259   9.246  13.355  13.849
  109PROX    C119260   9.333  13.300  13.946
  109PROX   H1119261   9.346  13.368  14.033
  109PROX   H1319262   9.291  13.199  13.966
  109PROX    C219263   9.471  13.268  13.882
  109PROX   H2119264   9.524  13.356  13.839
  109PROX    C319265   9.461  13.167  13.764
  109PROX   H3119266   9.411  13.215  13.678
  109PROX   H3219267   9.565  13.144  13.731
  109PROX   H3319268   9.414  13.069  13.787
  110PROX    O119269   9.558  13.197  13.972
  110PROX    C119270   9.692  13.236  13.964
  110PROX   H1119271   9.724  13.254  13.859
  110PROX   H1319272   9.707  13.328  14.025
  110PROX    C219273   9.781  13.114  14.009
  110PROX   H2119274   9.888  13.144  14.007
  110PROX    C319275   9.782  12.995  13.918
  110PROX   H3119276   9.832  13.015  13.821
  110PROX   H3219277   9.845  12.915  13.962
  110PROX   H3319278   9.677  12.965  13.900
  111PROX    O119279   9.762  13.075  14.150
  111PROX    C119280   9.770  13.188  14.240
  111PROX   H1119281   9.854  13.255  14.213
  111PROX   H1319282   9.675  13.245  14.237
  111PROX    C219283   9.781  13.144  14.391
  111PROX   H2119284   9.815  13.239  14.438
  111PROX    C319285   9.887  13.035  14.424
  111PROX   H3119286   9.986  13.058  14.378
  111PROX   H3219287   9.899  13.033  14.535
  111PROX   H3319288   9.855  12.936  14.387
  112PROX    O119289   9.648  13.121  14.447
  112PROX    C119290   9.580  13.005  14.385
  112PROX   H1119291   9.651  12.939  14.330
  112PROX   H1319292   9.532  12.944  14.464
  112PROX    C219293   9.471  13.042  14.282
  112PROX   H2119294   9.510  13.106  14.200
  112PROX    C319295   9.346  13.111  14.337
  112PROX   H3119296   9.291  13.048  14.410
  112PROX   H3219297   9.373  13.204  14.390
  112PROX   H3319298   9.275  13.133  14.254
  113PROX    O119299   9.414  12.924  14.222
  113PROX    C119300   9.499  12.869  14.124
  113PROX   H1119301   9.461  12.917  14.031
  113PROX   H1319302   9.606  12.899  14.127
  113PROX    C219303   9.489  12.719  14.119
  113PROX   H2119304   9.382  12.691  14.110
  113PROX    C319305   9.540  12.665  14.253
  113PROX   H3119306   9.553  12.555  14.244
  113PROX   H3219307   9.633  12.714  14.289
  113PROX   H3319308   9.454  12.689  14.319
  114PROX    O119309   9.565  12.677  14.005
  114PROX    C119310   9.491  12.668  13.888
  114PROX   H1119311   9.475  12.772  13.853
  114PROX   H1319312   9.567  12.627  13.817
  114PROX    C219313   9.374  12.568  13.880
  114PROX   H2119314   9.296  12.593  13.955
  114PROX    C319315   9.411  12.432  13.933
  114PROX   H3119316   9.479  12.381  13.862
  114PROX   H3219317   9.454  12.430  14.035
  114PROX   H3319318   9.326  12.360  13.931
  115PROX    O119319   9.322  12.578  13.749
  115PROX    C119320   9.231  12.684  13.738
  115PROX   H1119321   9.142  12.663  13.801
  115PROX   H1319322   9.281  12.772  13.784
  115PROX    C219323   9.200  12.727  13.595
  115PROX   H2119324   9.135  12.817  13.585
  115PROX    C319325   9.132  12.606  13.524
  115PROX   H3119326   9.025  12.607  13.554
  115PROX   H3219327   9.143  12.613  13.413
  115PROX   H3319328   9.180  12.513  13.562
  116PROX    O119329   9.328  12.742  13.524
  116PROX    C119330   9.391  12.868  13.531
  116PROX   H1119331   9.352  12.940  13.455
  116PROX   H1319332   9.379  12.908  13.634
  116PROX    C219333   9.538  12.858  13.488
  116PROX   H2119334   9.544  12.812  13.387
  116PROX    C319335   9.607  12.753  13.583
  116PROX   H3119336   9.614  12.793  13.687
  116PROX   H3219337   9.544  12.662  13.588
  116PROX   H3319338   9.705  12.724  13.540
  117PROX    O119339   9.599  12.990  13.474
  117PROX    C119340   9.741  12.978  13.453
  117PROX   H1119341   9.771  12.946  13.555
  117PROX   H1319342   9.773  12.907  13.374
  117PROX    C219343   9.815  13.115  13.434
  117PROX   H2119344   9.779  13.177  13.518
  117PROX    C319345   9.772  13.173  13.294
  117PROX   H3119346   9.818  13.117  13.210
  117PROX   H3219347   9.662  13.185  13.284
  117PROX   H3319348   9.822  13.272  13.285
  118PROX    O119349   9.959  13.106  13.448
  118PROX    C119350  10.023  13.232  13.480
  118PROX   H1119351  10.044  13.288  13.386
  118PROX   H1319352   9.951  13.302  13.526
  118PROX    C219353  10.156  13.232  13.560
  118PROX   H2119354  10.216  13.320  13.530
  118PROX    C319355  10.269  13.133  13.521
  118PROX   H3119356  10.246  13.038  13.572
  118PROX   H3219357  10.288  13.118  13.412
  118PROX   H3319358  10.364  13.164  13.570
  119PROX    O119359  10.131  13.237  13.696
  119PROX    C119360  10.231  13.299  13.771
  119PROX   H1119361  10.323  13.238  13.754
  119PROX   H1319362  10.241  13.401  13.730
  119PROX    C219363  10.195  13.307  13.923
  119PROX   H2119364  10.085  13.308  13.932
  119PROX    C319365  10.244  13.441  13.970
  119PROX   H3119366  10.348  13.466  13.941
  119PROX   H3219367  10.193  13.524  13.917
  119PROX   H3319368  10.236  13.457  14.080
  120PROX    O119369  10.243  13.200  14.003
  120PROX    C119370  10.202  13.071  13.984
  120PROX   H1119371  10.094  13.065  14.009
  120PROX   H1319372  10.217  13.037  13.880
  120PROX    C219373  10.274  12.986  14.091
  120PROX   H2119374  10.283  13.034  14.191
  120PROX    C319375  10.427  12.971  14.045
  120PROX   H3119376  10.474  13.071  14.031
  120PROX   H3219377  10.483  12.907  14.116
  120PROX   H3319378  10.428  12.925  13.944
  121PROX    O119379  10.214  12.855  14.107
  121PROX    C119380  10.087  12.844  14.174
  121PROX   H1119381  10.097  12.908  14.264
  121PROX   H1319382  10.014  12.901  14.113
  121PROX    C219383  10.041  12.704  14.205
  121PROX   H2119384   9.940  12.719  14.248
  121PROX    C319385  10.135  12.624  14.300
  121PROX   H3119386  10.233  12.600  14.254
  121PROX   H3219387  10.138  12.688  14.391
  121PROX   H3319388  10.082  12.535  14.339
  122PROX    O119389  10.032  12.639  14.081
  122PROX    C119390   9.922  12.547  14.075
  122PROX   H1119391   9.949  12.450  14.121
  122PROX   H1319392   9.829  12.580  14.127
  122PROX    C219393   9.889  12.541  13.921
  122PROX   H2119394   9.864  12.645  13.893
  122PROX    C319395   9.765  12.444  13.896
  122PROX   H3119396   9.775  12.353  13.959
  122PROX   H3219397   9.676  12.498  13.935
  122PROX   H3319398   9.749  12.419  13.788
  123PROX    O119399  10.001  12.496  13.839
  123PROX    C119400   9.975  12.527  13.701
  123PROX   H1119401  10.017  12.448  13.634
  123PROX   H1319402   9.867  12.535  13.677
  123PROX    C219403  10.047  12.652  13.645
  123PROX   H2119404  10.157  12.634  13.647
  123PROX    C319405  10.024  12.784  13.706
  123PROX   H3119406  10.031  12.781  13.817
  123PROX   H3219407  10.101  12.860  13.680
  123PROX   H3319408   9.929  12.827  13.667
  124PROX    O119409  10.009  12.660  13.505
  124PROX    C119410  10.114  12.721  13.421
  124PROX   H1119411  10.134  12.820  13.467
  124PROX   H1319412  10.203  12.655  13.418
  124PROX    C219413  10.062  12.729  13.280
  124PROX   H2119414   9.976  12.800  13.282
  124PROX    C319415  10.015  12.594  13.245
  124PROX   H3119416   9.908  12.576  13.272
  124PROX   H3219417  10.019  12.595  13.134
  124PROX   H3319418  10.067  12.502  13.282
  125PROX    O119419  10.166  12.775  13.188
  125PROX    C119420  10.212  12.905  13.226
  125PROX   H1119421  10.132  12.968  13.269
  125PROX   H1319422  10.297  12.905  13.296
  125PROX    C219423  10.270  12.971  13.106
  125PROX   H2119424  10.188  12.990  13.033
  125PROX    C319425  10.390  12.907  13.053
  125PROX   H3119426  10.353  12.829  12.983
  125PROX   H3219427  10.455  12.975  12.995
  125PROX   H3319428  10.457  12.866  13.132
  126PROX    O119429  10.313  13.100  13.153
  126PROX    C119430  10.221  13.209  13.118
  126PROX   H1119431  10.120  13.195  13.161
  126PROX   H1319432  10.268  13.296  13.169
  126PROX    C219433  10.215  13.254  12.974
  126PROX   H2119434  10.186  13.164  12.916
  126PROX    C319435  10.352  13.303  12.916
  126PROX   H3119436  10.442  13.248  12.948
  126PROX   H3219437  10.335  13.307  12.806
  126PROX   H3319438  10.375  13.402  12.960
  127PROX    O119439  10.118  13.361  12.966
  127PROX    C119440   9.994  13.318  12.923
  127PROX   H1119441   9.999  13.298  12.814
  127PROX   H1319442   9.945  13.238  12.983
  127PROX    C219443   9.892  13.433  12.941
  127PROX   H2119444   9.919  13.498  12.855
  127PROX    C319445   9.892  13.496  13.079
  127PROX   H3119446   9.866  13.423  13.159
  127PROX   H3219447   9.991  13.542  13.102
  127PROX   H3319448   9.812  13.572  13.092
  128PROX    O119449   9.765  13.385  12.909
  128PROX    C119450   9.676  13.494  12.880
  128PROX   H1119451   9.681  13.575  12.956
  128PROX   H1319452   9.698  13.532  12.778
  128PROX    C219453   9.535  13.435  12.879
  128PROX   H2119454   9.499  13.402  12.978
  128PROX    C319455   9.526  13.310  12.778
  128PROX   H3119456   9.582  13.228  12.829
  128PROX   H3219457   9.422  13.273  12.769
  128PROX   H3319458   9.569  13.337  12.680
  129PROX    O119459   9.454  13.534  12.830
  129PROX    C119460   9.315  13.512  12.831
  129PROX   H1119461   9.293  13.420  12.773
  129PROX   H1319462   9.279  13.476  12.930
  129PROX    C219463   9.241  13.641  12.780
  129PROX   H2119464   9.150  13.602  12.728
  129PROX    C319465   9.324  13.721  12.679
  129PROX   H3119466   9.424  13.736  12.724
  129PROX   H3219467   9.328  13.660  12.586
  129PROX   H3319468   9.282  13.822  12.659
  130PROX    O119469   9.189  13.703  12.891
  130PROX    C119470   9.284  13.750  12.988
  130PROX   H1119471   9.318  13.666  13.053
  130PROX   H1319472   9.360  13.792  12.919
  130PROX    C219473   9.234  13.872  13.080
  130PROX   H2119474   9.156  13.840  13.153
  130PROX    C319475   9.158  13.978  12.991
  130PROX   H3119476   9.063  13.930  12.958
  130PROX   H3219477   9.148  14.072  13.049
  130PROX   H3319478   9.210  14.004  12.897
  131PROX    O119479   9.344  13.938  13.141
  131PROX    C119480   9.413  13.857  13.237
  131PROX   H1119481   9.350  13.822  13.322
  131PROX   H1319482   9.463  13.766  13.196
  131PROX    C219483   9.532  13.933  13.299
  131PROX   H2119484   9.579  13.856  13.363
  131PROX    C319485   9.510  14.063  13.373
  131PROX   H3119486   9.411  14.106  13.349
  131PROX   H3219487   9.513  14.041  13.481
  131PROX   H3319488   9.588  14.139  13.351
  132PROX    O119489   9.612  13.975  13.187
  132PROX    C119490   9.697  13.877  13.127
  132PROX   H1119491   9.750  13.821  13.207
  132PROX   H1319492   9.640  13.801  13.070
  132PROX    C219493   9.801  13.958  13.050
  132PROX   H2119494   9.842  14.039  13.114
  132PROX    C319495   9.737  14.013  12.929
  132PROX   H3119496   9.689  13.941  12.858
  132PROX   H3219497   9.647  14.074  12.953
  132PROX   H3319498   9.805  14.078  12.871
  133PROX    O119499   9.903  13.867  13.009
  133PROX    C119500  10.013  13.854  13.097
  133PROX   H1119501  10.011  13.938  13.170
  133PROX   H1319502   9.999  13.766  13.164
  133PROX    C219503  10.157  13.858  13.033
  133PROX   H2119504  10.186  13.959  12.996
  133PROX    C319505  10.164  13.760  12.912
  133PROX   H3119506  10.265  13.761  12.866
  133PROX   H3219507  10.133  13.656  12.939
  133PROX   H3319508  10.088  13.798  12.840
  134PROX    O119509  10.248  13.833  13.140
  134PROX    C119510  10.388  13.854  13.117
  134PROX   H1119511  10.424  13.773  13.051
  134PROX   H1319512  10.411  13.952  13.069
  134PROX    C219513  10.466  13.848  13.253
  134PROX   H2119514  10.449  13.742  13.282
  134PROX    C319515  10.427  13.942  13.369
  134PROX   H3119516  10.482  13.916  13.461
  134PROX   H3219517  10.451  14.045  13.334
  134PROX   H3319518  10.317  13.935  13.384
  135PROX    O119519  10.607  13.868  13.233
  135PROX    C119520  10.677  13.746  13.224
  135PROX   H1119521  10.658  13.681  13.312
  135PROX   H1319522  10.642  13.699  13.129
  135PROX    C219523  10.829  13.776  13.225
  135PROX   H2119524  10.855  13.821  13.127
  135PROX    C319525  10.900  13.641  13.239
  135PROX   H3119526  10.873  13.570  13.159
  135PROX   H3219527  11.009  13.658  13.230
  135PROX   H3319528  10.868  13.586  13.330
  136PROX    O119529  10.860  13.859  13.337
  136PROX    C119530  10.894  13.993  13.295
  136PROX   H1119531  10.986  14.003  13.234
  136PROX   H1319532  10.801  14.018  13.240
  136PROX    C219533  10.889  14.095  13.410
  136PROX   H2119534  10.984  14.094  13.468
  136PROX    C319535  10.776  14.077  13.508
  136PROX   H3119536  10.670  14.080  13.474
  136PROX   H3219537  10.777  13.968  13.531
  136PROX   H3319538  10.767  14.134  13.603
  137PROX    O119539  10.874  14.222  13.355
  137PROX    C119540  10.888  14.334  13.436
  137PROX   H1119541  10.820  14.334  13.523
  137PROX   H1319542  10.993  14.330  13.470
  137PROX    C219543  10.884  14.465  13.346
  137PROX   H2119544  10.792  14.454  13.286
  137PROX    C319545  11.008  14.483  13.258
  137PROX   H3119546  11.098  14.530  13.302
  137PROX   H3219547  11.040  14.385  13.217
  137PROX   H3319548  10.979  14.542  13.168
  138PROX    O119549  10.868  14.577  13.432
  138PROX    C119550  10.799  14.686  13.375
  138PROX   H1119551  10.858  14.780  13.376
  138PROX   H1319552  10.790  14.677  13.265
  138PROX    C219553  10.666  14.715  13.431
  138PROX   H2119554  10.614  14.618  13.419
  138PROX    C319555  10.583  14.821  13.355
  138PROX   H3119556  10.475  14.829  13.382
  138PROX   H3219557  10.625  14.924  13.357
  138PROX   H3319558  10.584  14.787  13.249
  139PROX    O119559  10.674  14.762  13.570
  139PROX    C119560  10.578  14.700  13.654
  139PROX   H1119561  10.491  14.686  13.586
  139PROX   H1319562  10.615  14.600  13.684
  139PROX    C219563  10.541  14.779  13.777
  139PROX   H2119564  10.479  14.861  13.736
  139PROX    C319565  10.666  14.845  13.844
  139PROX   H3119566  10.738  14.898  13.778
  139PROX   H3219567  10.632  14.918  13.920
  139PROX   H3319568  10.723  14.760  13.889
  140PROX    O119569  10.468  14.694  13.868
  140PROX    C119570  10.379  14.781  13.948
  140PROX   H1119571  10.438  14.855  14.007
  140PROX   H1319572  10.306  14.839  13.888
  140PROX    C219573  10.281  14.701  14.030
  140PROX   H2119574  10.236  14.618  13.971
  140PROX    C319575  10.155  14.783  14.071
  140PROX   H3119576  10.198  14.875  14.114
  140PROX   H3219577  10.083  14.792  13.987
  140PROX   H3319578  10.102  14.726  14.150
  141PROX    O119579  10.341  14.650  14.147
  141PROX    C119580  10.409  14.529  14.118
  141PROX   H1119581  10.473  14.527  14.027
  141PROX   H1319582  10.471  14.501  14.206
  141PROX    C219583  10.304  14.410  14.111
  141PROX   H2119584  10.216  14.443  14.052
  141PROX    C319585  10.250  14.366  14.243
  141PROX   H3119586  10.335  14.337  14.308
  141PROX   H3219587  10.202  14.453  14.292
  141PROX   H3319588  10.181  14.279  14.242
  142PROX    O119589  10.370  14.295  14.052
  142PROX    C119590  10.361  14.296  13.903
  142PROX   H1119591  10.254  14.309  13.874
  142PROX   H1319592  10.417  14.386  13.871
  142PROX    C219593  10.415  14.175  13.827
  142PROX   H2119594  10.359  14.083  13.854
  142PROX    C319595  10.565  14.152  13.853
  142PROX   H3119596  10.564  14.120  13.959
  142PROX   H3219597  10.614  14.079  13.785
  142PROX   H3319598  10.621  14.247  13.856
  143PROX    O119599  10.394  14.187  13.685
  143PROX    C119600  10.472  14.284  13.617
  143PROX   H1119601  10.486  14.380  13.672
  143PROX   H1319602  10.569  14.240  13.587
  143PROX    C219603  10.407  14.326  13.481
  143PROX   H2119604  10.326  14.251  13.468
  143PROX    C319605  10.504  14.340  13.359
  143PROX   H3119606  10.572  14.426  13.372
  143PROX   H3219607  10.557  14.246  13.333
  143PROX   H3319608  10.432  14.371  13.280
  144PROX    O119609  10.341  14.452  13.493
  144PROX    C119610  10.237  14.449  13.598
  144PROX   H1119611  10.174  14.357  13.601
  144PROX   H1319612  10.273  14.472  13.701
  144PROX    C219613  10.124  14.553  13.561
  144PROX   H2119614  10.078  14.520  13.466
  144PROX    C319615  10.178  14.696  13.532
  144PROX   H3119616  10.102  14.768  13.496
  144PROX   H3219617  10.229  14.735  13.622
  144PROX   H3319618  10.256  14.700  13.452
  145PROX    O119619  10.033  14.562  13.670
  145PROX    C119620   9.938  14.458  13.690
  145PROX   H1119621   9.875  14.445  13.600
  145PROX   H1319622   9.973  14.358  13.725
  145PROX    C219623   9.834  14.501  13.790
  145PROX   H2119624   9.783  14.587  13.741
  145PROX    C319625   9.891  14.539  13.925
  145PROX   H3119626   9.966  14.619  13.912
  145PROX   H3219627   9.812  14.564  13.999
  145PROX   H3319628   9.941  14.455  13.977
  146PROX    O119629   9.748  14.388  13.807
  146PROX    C119630   9.611  14.430  13.806
  146PROX   H1119631   9.607  14.516  13.876
  146PROX   H1319632   9.588  14.476  13.708
  146PROX    C219633   9.505  14.330  13.857
  146PROX   H2119634   9.560  14.259  13.923
  146PROX    C319635   9.425  14.250  13.750
  146PROX   H3119636   9.352  14.175  13.788
  146PROX   H3219637   9.369  14.318  13.682
  146PROX   H3319638   9.506  14.193  13.699
  147PROX    O119639   9.400  14.396  13.940
  147PROX    C119640   9.447  14.409  14.073
  147PROX   H1119641   9.555  14.385  14.086
  147PROX   H1319642   9.424  14.512  14.107
  147PROX    C219643   9.377  14.300  14.166
  147PROX   H2119644   9.266  14.311  14.162
  147PROX    C319645   9.409  14.336  14.310
  147PROX   H3119646   9.519  14.349  14.323
  147PROX   H3219647   9.364  14.432  14.343
  147PROX   H3319648   9.381  14.261  14.387
  148PROX    O119649   9.407  14.164  14.131
  148PROX    C119650   9.298  14.079  14.142
  148PROX   H1119651   9.265  14.093  14.247
  148PROX   H1319652   9.210  14.121  14.088
  148PROX    C219653   9.336  13.929  14.122
  148PROX   H2119654   9.412  13.908  14.200
  148PROX    C319655   9.375  13.900  13.982
  148PROX   H3119656   9.461  13.959  13.945
  148PROX   H3219657   9.388  13.792  13.962
  148PROX   H3319658   9.284  13.922  13.921
  149PROX    O119659   9.227  13.841  14.135
  149PROX    C119660   9.212  13.798  14.269
  149PROX   H1119661   9.223  13.880  14.343
  149PROX   H1319662   9.107  13.768  14.289
  149PROX    C219663   9.309  13.687  14.302
  149PROX   H2119664   9.412  13.728  14.295
  149PROX    C319665   9.289  13.569  14.204
  149PROX   H3119666   9.342  13.586  14.108
  149PROX   H3219667   9.332  13.475  14.245
  149PROX   H3319668   9.178  13.561  14.195
  150PROX    O119669   9.278  13.623  14.427
  150PROX    C119670   9.375  13.627  14.520
  150PROX   H1119671   9.449  13.705  14.496
  150PROX   H1319672   9.325  13.666  14.611
  150PROX    C219673   9.453  13.490  14.549
  150PROX   H2119674   9.464  13.433  14.455
  150PROX    C319675   9.375  13.402  14.652
  150PROX   H3119676   9.412  13.419  14.756
  150PROX   H3219677   9.269  13.430  14.634
  150PROX   H3319678   9.392  13.297  14.621
  151PROX    O119679   9.585  13.517  14.599
  151PROX    C119680   9.666  13.408  14.578
  151PROX   H1119681   9.633  13.319  14.635
  151PROX   H1319682   9.665  13.373  14.473
  151PROX    C219683   9.820  13.435  14.613
  151PROX   H2119684   9.878  13.340  14.611
  151PROX    C319685   9.822  13.496  14.759
  151PROX   H3119686   9.923  13.491  14.804
  151PROX   H3219687   9.779  13.597  14.745
  151PROX   H3319688   9.754  13.436  14.824
  152PROX    O119689   9.873  13.530  14.524
  152PROX    C119690  10.009  13.556  14.536
  152PROX   H1119691  10.021  13.643  14.605
  152PROX   H1319692  10.068  13.480  14.593
  152PROX    C219693  10.058  13.580  14.394
  152PROX   H2119694   9.988  13.655  14.353
  152PROX    C319695  10.045  13.454  14.309
  152PROX   H3119696   9.955  13.396  14.338
  152PROX   H3219697  10.040  13.473  14.199
  152PROX   H3319698  10.121  13.378  14.336
  153PROX    O119699  10.198  13.621  14.404
  153PROX    C119700  10.231  13.709  14.290
  153PROX   H1119701  10.339  13.695  14.267
  153PROX   H1319702  10.178  13.681  14.196
  153PROX    C219703  10.194  13.853  14.328
  153PROX   H2119704  10.087  13.857  14.355
  153PROX    C319705  10.213  13.946  14.209
  153PROX   H3119706  10.220  14.056  14.223
  153PROX   H3219707  10.306  13.901  14.170
  153PROX   H3319708  10.135  13.928  14.132
  154PROX    O119709  10.276  13.909  14.430
  154PROX    C119710  10.211  13.910  14.558
  154PROX   H1119711  10.172  13.807  14.572
  154PROX   H1319712  10.285  13.925  14.640
  154PROX    C219713  10.106  14.026  14.563
  154PROX   H2119714  10.030  14.016  14.483
  154PROX    C319715  10.181  14.156  14.535
  154PROX   H3119716  10.245  14.136  14.447
  154PROX   H3219717  10.107  14.239  14.534
  154PROX   H3319718  10.243  14.178  14.625
  155PROX    O119719  10.058  14.025  14.692
  155PROX    C119720   9.930  13.964  14.704
  155PROX   H1119721   9.912  13.869  14.650
  155PROX   H1319722   9.917  13.960  14.814
  155PROX    C219723   9.824  14.069  14.649
  155PROX   H2119724   9.844  14.094  14.542
  155PROX    C319725   9.812  14.198  14.736
  155PROX   H3119726   9.804  14.169  14.843
  155PROX   H3219727   9.891  14.276  14.731
  155PROX   H3319728   9.721  14.254  14.707
  156PROX    O119729   9.698  14.017  14.669
  156PROX    C119730   9.661  13.897  14.596
  156PROX   H1119731   9.726  13.812  14.628
  156PROX   H1319732   9.556  13.864  14.607
  156PROX    C219733   9.659  13.931  14.446
  156PROX   H2119734   9.763  13.958  14.419
  156PROX    C319735   9.566  14.047  14.418
  156PROX   H3119736   9.571  14.136  14.484
  156PROX   H3219737   9.584  14.088  14.316
  156PROX   H3319738   9.466  14.000  14.415
  157PROX    O119739   9.625  13.811  14.376
  157PROX    C119740   9.706  13.782  14.263
  157PROX   H1119741   9.730  13.875  14.206
  157PROX   H1319742   9.808  13.763  14.304
  157PROX    C219743   9.652  13.670  14.163
  157PROX   H2119744   9.555  13.702  14.121
  157PROX    C319745   9.644  13.532  14.240
  157PROX   H3119746   9.603  13.449  14.179
  157PROX   H3219747   9.744  13.493  14.267
  157PROX   H3319748   9.588  13.546  14.335
  158PROX    O119749   9.740  13.648  14.054
  158PROX    C119750   9.683  13.602  13.938
  158PROX   H1119751   9.631  13.504  13.945
  158PROX   H1319752   9.599  13.667  13.905
  158PROX    C219753   9.790  13.607  13.826
  158PROX   H2119754   9.730  13.562  13.744
  158PROX    C319755   9.923  13.529  13.845
  158PROX   H3119756   9.992  13.572  13.769
  158PROX   H3219757   9.973  13.547  13.942
  158PROX   H3319758   9.902  13.421  13.828
  159PROX    O119759   9.827  13.748  13.815
  159PROX    C119760   9.763  13.803  13.702
  159PROX   H1119761   9.811  13.760  13.612
  159PROX   H1319762   9.657  13.769  13.700
  159PROX    C219763   9.777  13.955  13.706
  159PROX   H2119764   9.886  13.965  13.723
  159PROX    C319765   9.702  14.014  13.821
  159PROX   H3119766   9.597  14.011  13.785
  159PROX   H3219767   9.732  13.968  13.917
  159PROX   H3319768   9.714  14.125  13.827
  160PROX    O119769   9.751  14.007  13.578
  160PROX    C119770   9.795  14.140  13.559
  160PROX   H1119771   9.711  14.211  13.541
  160PROX   H1319772   9.850  14.167  13.651
  160PROX    C219773   9.892  14.137  13.436
  160PROX   H2119774   9.827  14.094  13.357
  160PROX    C319775  10.020  14.050  13.456
  160PROX   H3119776  10.063  14.088  13.551
  160PROX   H3219777   9.984  13.947  13.479
  160PROX   H3319778  10.100  14.050  13.379
  161PROX    O119779   9.933  14.272  13.407
  161PROX    C119780   9.973  14.289  13.265
  161PROX   H1119781  10.053  14.365  13.257
  161PROX   H1319782  10.012  14.194  13.221
  161PROX    C219783   9.851  14.315  13.176
  161PROX   H2119784   9.787  14.226  13.193
  161PROX    C319785   9.893  14.309  13.032
  161PROX   H3119786   9.950  14.215  13.013
  161PROX   H3219787   9.806  14.309  12.963
  161PROX   H3319788   9.970  14.383  13.003
  162PROX    O119789   9.810  14.443  13.221
  162PROX    C119790   9.694  14.438  13.310
  162PROX   H1119791   9.611  14.380  13.264
  162PROX   H1319792   9.712  14.394  13.411
  162PROX    C219793   9.654  14.581  13.334
  162PROX   H2119794   9.619  14.618  13.235
  162PROX    C319795   9.759  14.667  13.391
  162PROX   H3119796   9.731  14.775  13.388
  162PROX   H3219797   9.790  14.625  13.489
  162PROX   H3319798   9.851  14.669  13.328
  163PROX    O119799   9.539  14.589  13.413
  163PROX    C119800   9.416  14.543  13.355
  163PROX   H1119801   9.401  14.584  13.253
  163PROX   H1319802   9.420  14.432  13.352
  163PROX    C219803   9.297  14.581  13.440
  163PROX   H2119804   9.325  14.554  13.544
  163PROX    C319805   9.170  14.503  13.403
  163PROX   H3119806   9.195  14.397  13.382
  163PROX   H3219807   9.097  14.510  13.487
  163PROX   H3319808   9.125  14.540  13.309
  164PROX    O119809   9.265  14.722  13.428
  164PROX    C119810   9.363  14.812  13.478
  164PROX   H1119811   9.458  14.816  13.420
  164PROX   H1319812   9.320  14.913  13.463
  164PROX    C219813   9.392  14.787  13.628
  164PROX   H2119814   9.430  14.688  13.659
  164PROX    C319815   9.266  14.794  13.719
  164PROX   H3119816   9.192  14.716  13.693
  164PROX   H3219817   9.283  14.787  13.828
  164PROX   H3319818   9.213  14.892  13.713
  165PROX    O119819   9.476  14.892  13.683
  165PROX    C119820   9.615  14.860  13.652
  165PROX   H1119821   9.637  14.752  13.644
  165PROX   H1319822   9.637  14.900  13.551
  165PROX    C219823   9.721  14.916  13.756
  165PROX   H2119824   9.708  15.026  13.760
  165PROX    C319825   9.864  14.902  13.697
  165PROX   H3119826   9.937  14.926  13.778
  165PROX   H3219827   9.894  14.799  13.668
  165PROX   H3319828   9.891  14.967  13.611
  166ETHO    O119829   9.709  14.849  13.877
  166ETHO    C119830   9.620  14.914  13.969
  166ETHO   H1119831   9.552  14.979  13.909
  166ETHO   H1319832   9.690  14.969  14.034
  166ETHO    C219833   9.535  14.806  14.037
  166ETHO   H2119834   9.598  14.728  14.084
  166ETHO   H2319835   9.478  14.769  13.948
  167ETHO    O119836   9.445  14.865  14.136
  167ETHO    C119837   9.338  14.776  14.165
  167ETHO   H1119838   9.235  14.816  14.152
  167ETHO   H1319839   9.345  14.683  14.105
  167ETHO    C219840   9.343  14.708  14.303
  167ETHO   H2119841   9.436  14.651  14.327
  167ETHO   H2319842   9.250  14.648  14.306
  168ETHO    O119843   9.327  14.811  14.399
  168ETHO    C119844   9.294  14.767  14.529
  168ETHO   H1119845   9.367  14.686  14.551
  168ETHO   H1319846   9.192  14.724  14.533
  168ETHO    C219847   9.295  14.890  14.634
  168ETHO   H2119848   9.382  14.954  14.608
  168ETHO   H2319849   9.315  14.842  14.733
  169ETHO    O119850   9.168  14.951  14.643
  169ETHO    C119851   9.165  15.074  14.711
  169ETHO   H1119852   9.222  15.070  14.807
  169ETHO   H1319853   9.236  15.135  14.652
  169ETHO    C219854   9.024  15.142  14.727
  169ETHO   H2119855   8.961  15.064  14.775
  169ETHO   H2319856   8.980  15.175  14.631
  170ETHO    O119857   9.007  15.255  14.812
  170ETHO    C119858   9.077  15.379  14.782
  170ETHO   H1119859   9.077  15.402  14.673
  170ETHO   H1319860   9.175  15.371  14.834
  170ETHO    C219861   9.006  15.497  14.847
  170ETHO   H2119862   8.895  15.495  14.839
  170ETHO   H2319863   9.036  15.586  14.788
  171ETHO    O119864   9.042  15.524  14.987
  171ETHO    C119865   8.990  15.423  15.081
  171ETHO   H1119866   8.882  15.413  15.056
  171ETHO   H1319867   9.031  15.322  15.058
  171ETHO    C219868   8.996  15.458  15.234
  171ETHO   H2119869   9.101  15.462  15.270
  171ETHO   H2319870   8.947  15.375  15.290
  172ETHO    O119871   8.916  15.573  15.249
  172ETHO    C119872   8.999  15.690  15.276
  172ETHO   H1119873   9.044  15.717  15.179
  172ETHO   H1319874   9.078  15.672  15.352
  172ETHO    C219875   8.908  15.805  15.324
  172ETHO   H2119876   8.804  15.789  15.289
  172ETHO   H2319877   8.947  15.899  15.278
  173ETHO    O119878   8.901  15.800  15.467
  173ETHO    C119879   8.782  15.873  15.517
  173ETHO   H1119880   8.819  15.952  15.584
  173ETHO   H1319881   8.741  15.921  15.425
  173ETHO    C219882   8.685  15.792  15.594
  173ETHO   H2119883   8.601  15.858  15.624
  173ETHO   H2319884   8.656  15.710  15.525
  174ETHO    O119885   8.733  15.747  15.714
  174ETHO    C119886   8.629  15.669  15.778
  174ETHO   H1119887   8.530  15.719  15.786
  174ETHO   H1319888   8.613  15.575  15.721
  174ETHO    C219889   8.659  15.607  15.922
  174ETHO   H2119890   8.766  15.576  15.927
  174ETHO   H2319891   8.593  15.518  15.932
  175ETHO    O119892   8.626  15.693  16.028
  175ETHO    C119893   8.614  15.630  16.154
  175ETHO   H1119894   8.534  15.553  16.148
  175ETHO   H1319895   8.714  15.596  16.187
  175ETHO    C219896   8.569  15.737  16.250
  175ETHO   H2119897   8.530  15.682  16.338
  175ETHO   H2319898   8.486  15.795  16.205
  176ETHO    O119899   8.670  15.822  16.291
  176ETHO    C119900   8.624  15.921  16.380
  176ETHO   H1119901   8.545  15.886  16.450
  176ETHO   H1319902   8.714  15.947  16.440
  176ETHO    C219903   8.582  16.054  16.309
  176ETHO   H2119904   8.651  16.075  16.224
  176ETHO   H2319905   8.592  16.135  16.385
  177ETHO    O119906   8.446  16.036  16.273
  177ETHO    C119907   8.415  16.121  16.165
  177ETHO   H1119908   8.468  16.089  16.073
  177ETHO   H1319909   8.454  16.225  16.171
  177ETHO    C219910   8.270  16.156  16.142
  177ETHO   H2119911   8.267  16.238  16.067
  177ETHO   H2319912   8.224  16.189  16.237
  178ETHO    O119913   8.195  16.046  16.083
  178ETHO    C119914   8.054  16.071  16.090
  178ETHO   H1119915   8.032  16.111  16.191
  178ETHO   H1319916   8.019  16.144  16.014
  178ETHO    C219917   7.986  15.931  16.061
  178ETHO   H2119918   7.878  15.932  16.090
  178ETHO   H2319919   8.038  15.866  16.135
  179ETHO    O119920   8.006  15.885  15.932
  179ETHO    C119921   7.903  15.902  15.840
  179ETHO   H1119922   7.821  15.843  15.885
  179ETHO   H1319923   7.928  15.847  15.747
  179ETHO    C219924   7.841  16.036  15.819
  179ETHO   H2119925   7.773  16.038  15.731
  179ETHO   H2319926   7.926  16.102  15.792
  180ETHO    O119927   7.778  16.097  15.929
  180ETHO    C119928   7.765  16.233  15.900
  180ETHO   H1119929   7.867  16.273  15.877
  180ETHO   H1319930   7.710  16.258  15.807
  180ETHO    C219931   7.720  16.319  16.020
  180ETHO   H2119932   7.750  16.425  16.006
  180ETHO   H2319933   7.768  16.282  16.114
  181ETHO    O119934   7.580  16.320  16.024
  181ETHO    C119935   7.535  16.374  16.142
  181ETHO   H1119936   7.583  16.474  16.156
  181ETHO   H1319937   7.561  16.299  16.221
  181ETHO    C219938   7.380  16.399  16.131
  181ETHO   H2119939   7.327  16.303  16.113
  181ETHO   H2319940   7.369  16.468  16.044
  182ETHO    O119941   7.324  16.444  16.252
  182ETHO    C119942   7.311  16.338  16.346
  182ETHO   H1119943   7.234  16.267  16.309
  182ETHO   H1319944   7.409  16.289  16.364
  182ETHO    C219945   7.268  16.385  16.487
  182ETHO   H2119946   7.233  16.292  16.538
  182ETHO   H2319947   7.179  16.451  16.477
  183ETHO    O119948   7.382  16.433  16.564
  183ETHO    C119949   7.341  16.433  16.696
  183ETHO   H1119950   7.295  16.335  16.725
  183ETHO   H1319951   7.264  16.512  16.709
  183ETHO    C219952   7.451  16.481  16.792
  183ETHO   H2119953   7.406  16.498  16.892
  183ETHO   H2319954   7.507  16.570  16.754
  184ETHO    O119955   7.545  16.376  16.818
  184ETHO    C119956   7.499  16.290  16.921
  184ETHO   H1119957   7.523  16.350  17.011
  184ETHO   H1319958   7.390  16.266  16.914
  184ETHO    C219959   7.576  16.159  16.921
  184ETHO   H2119960   7.585  16.125  17.026
  184ETHO   H2319961   7.677  16.165  16.876
  185ETHO    O119962   7.501  16.063  16.851
  185ETHO    C119963   7.532  16.056  16.712
  185ETHO   H1119964   7.526  16.159  16.672
  185ETHO   H1319965   7.637  16.020  16.705
  185ETHO    C219966   7.418  15.981  16.645
  185ETHO   H2119967   7.436  15.959  16.537
  185ETHO   H2319968   7.324  16.040  16.656
  186ETHO    O119969   7.404  15.852  16.710
  186ETHO    C119970   7.335  15.762  16.627
  186ETHO   H1119971   7.230  15.797  16.611
  186ETHO   H1319972   7.369  15.758  16.521
  186ETHO    C219973   7.318  15.626  16.690
  186ETHO   H2119974   7.234  15.574  16.638
  186ETHO   H2319975   7.275  15.648  16.790
  187ETHO    O119976   7.438  15.551  16.679
  187ETHO    C119977   7.407  15.417  16.688
  187ETHO   H1119978   7.398  15.390  16.795
  187ETHO   H1319979   7.312  15.390  16.636
  187ETHO    C219980   7.515  15.322  16.622
  187ETHO   H2119981   7.525  15.358  16.518
  187ETHO   H2319982   7.472  15.220  16.636
  188ETHO    O119983   7.649  15.330  16.677
  188ETHO    C119984   7.674  15.248  16.795
  188ETHO   H1119985   7.647  15.142  16.778
  188ETHO   H1319986   7.634  15.308  16.880
  188ETHO    C219987   7.824  15.250  16.812
  188ETHO   H2119988   7.839  15.355  16.847
  188ETHO   H2319989   7.869  15.237  16.712
  189ETHO    O119990   7.865  15.157  16.913
  189ETHO    C119991   8.004  15.132  16.901
  189ETHO   H1119992   8.024  15.059  16.820
  189ETHO   H1319993   8.068  15.222  16.887
  189ETHO    C219994   8.044  15.057  17.030
  189ETHO   H2119995   8.153  15.037  17.021
  189ETHO   H2319996   7.992  14.959  17.030
  190ETHO    O119997   8.015  15.138  17.143
  190ETHO    C119998   8.080  15.083  17.266
  190ETHO   H1119999   8.069  15.164  17.341
  190ETHO   H1320000   8.190  15.070  17.262
  190ETHO    C220001   8.000  14.958  17.313
  190ETHO   H2120002   7.891  14.975  17.301
  190ETHO   H2320003   8.022  14.945  17.421
  191ETHO    O120004   8.026  14.828  17.247
  191ETHO    C120005   7.962  14.707  17.302
  191ETHO   H1120006   7.986  14.694  17.410
  191ETHO   H1320007   7.853  14.714  17.282
  191ETHO    C220008   8.021  14.586  17.221
  191ETHO   H2120009   7.998  14.594  17.113
  191ETHO   H2320010   7.961  14.498  17.253
  192ETHO    O120011   8.155  14.569  17.248
  192ETHO    C120012   8.206  14.458  17.174
  192ETHO   H1120013   8.197  14.480  17.065
  192ETHO   H1320014   8.146  14.367  17.198
  192ETHO    C220015   8.356  14.439  17.196
  192ETHO   H2120016   8.400  14.352  17.144
  192ETHO   H2320017   8.384  14.431  17.304
  193ETHO    O120018   8.417  14.547  17.130
  193ETHO    C120019   8.540  14.589  17.187
  193ETHO   H1120020   8.591  14.502  17.233
  193ETHO   H1320021   8.599  14.622  17.099
  193ETHO    C220022   8.510  14.712  17.276
  193ETHO   H2120023   8.593  14.724  17.348
  193ETHO   H2320024   8.419  14.706  17.339
  194ETHO    O120025   8.526  14.828  17.196
  194ETHO    C120026   8.511  14.949  17.265
  194ETHO   H1120027   8.546  14.937  17.369
  194ETHO   H1320028   8.408  14.988  17.275
  194ETHO    C220029   8.598  15.050  17.204
  194ETHO   H2120030   8.701  15.017  17.180
  194ETHO   H2320031   8.602  15.134  17.277
  195ETHO    O120032   8.543  15.101  17.074
  195ETHO    C120033   8.625  15.212  17.033
  195ETHO   H1120034   8.608  15.292  17.109
  195ETHO   H1320035   8.733  15.186  17.042
  195ETHO    C220036   8.599  15.267  16.891
  195ETHO   H2120037   8.617  15.188  16.815
  195ETHO   H2320038   8.655  15.360  16.867
  196ETHO    O120039   8.458  15.302  16.880
  196ETHO    C120040   8.443  15.351  16.746
  196ETHO   H1120041   8.486  15.453  16.733
  196ETHO   H1320042   8.490  15.275  16.680
  196ETHO    C220043   8.296  15.351  16.696
  196ETHO   H2120044   8.248  15.262  16.742
  196ETHO   H2320045   8.299  15.342  16.586
  197ETHO    O120046   8.222  15.469  16.717
  197ETHO    C120047   8.096  15.474  16.646
  197ETHO   H1120048   8.067  15.380  16.594
  197ETHO   H1320049   8.024  15.517  16.720
  197ETHO    C220050   8.115  15.578  16.545
  197ETHO   H2120051   8.141  15.670  16.601
  197ETHO   H2320052   8.020  15.598  16.491
  198ETHO    O120053   8.216  15.544  16.452
  198ETHO    C120054   8.159  15.473  16.340
  198ETHO   H1120055   8.202  15.371  16.332
  198ETHO   H1320056   8.048  15.461  16.345
  198ETHO    C220057   8.188  15.553  16.214
  198ETHO   H2120058   8.292  15.590  16.222
  198ETHO   H2320059   8.118  15.640  16.210
  199ETHO    O120060   8.177  15.477  16.095
  199ETHO    C120061   8.218  15.566  15.981
  199ETHO   H1120062   8.327  15.586  15.987
  199ETHO   H1320063   8.163  15.662  15.993
  199ETHO    C220064   8.181  15.518  15.843
  199ETHO   H2120065   8.183  15.599  15.768
  199ETHO   H2320066   8.080  15.472  15.853
  200ETHO    O120067   8.266  15.422  15.773
  200ETHO    C120068   8.199  15.379  15.657
  200ETHO   H1120069   8.236  15.278  15.629
  200ETHO   H1320070   8.090  15.368  15.675
  200ETHO    C220071   8.211  15.468  15.526
  200ETHO   H2120072   8.209  15.575  15.556
  200ETHO   H2320073   8.122  15.450  15.462
  201ETHO    O120074   8.331  15.438  15.457
  201ETHO    C120075   8.453  15.482  15.520
  201ETHO   H1120076   8.455  15.427  15.616
  201ETHO   H1320077   8.442  15.591  15.538
  201ETHO    C220078   8.566  15.456  15.417
  201ETHO   H2120079   8.669  15.488  15.443
  201ETHO   H2320080   8.538  15.510  15.324
  202ETHO    O120081   8.558  15.315  15.400
  202ETHO    C120082   8.675  15.268  15.328
  202ETHO   H1120083   8.689  15.337  15.242
  202ETHO   H1320084   8.763  15.278  15.394
  202ETHO    C220085   8.659  15.120  15.279
  202ETHO   H2120086   8.747  15.107  15.213
  202ETHO   H2320087   8.565  15.098  15.225
  203ETHO    O120088   8.663  15.027  15.390
  203ETHO    C120089   8.671  14.896  15.349
  203ETHO   H1120090   8.759  14.885  15.283
  203ETHO   H1320091   8.580  14.869  15.292
  203ETHO    C220092   8.676  14.789  15.464
  203ETHO   H2120093   8.672  14.690  15.413
  203ETHO   H2320094   8.582  14.800  15.522
  204ETHO    O120095   8.791  14.796  15.554
  204ETHO    C120096   8.761  14.726  15.672
  204ETHO   H1120097   8.675  14.777  15.720
  204ETHO   H1320098   8.734  14.623  15.640
  204ETHO    C220099   8.885  14.728  15.774
  204ETHO   H2120100   8.863  14.685  15.874
  204ETHO   H2320101   8.909  14.834  15.798
  205ETHO    O120102   9.005  14.673  15.726
  205ETHO    C120103   9.000  14.531  15.716
  205ETHO   H1120104   8.925  14.495  15.643
  205ETHO   H1320105   8.969  14.496  15.816
  205ETHO    C220106   9.131  14.461  15.686
  205ETHO   H2120107   9.120  14.351  15.678
  205ETHO   H2320108   9.207  14.483  15.765
  206ETHO    O120109   9.188  14.505  15.559
  206ETHO    C120110   9.332  14.515  15.562
  206ETHO   H1120111   9.373  14.555  15.657
  206ETHO   H1320112   9.377  14.414  15.551
  206ETHO    C220113   9.392  14.578  15.433
  206ETHO   H2120114   9.355  14.682  15.421
  206ETHO   H2320115   9.501  14.580  15.451
  207ETHO    O120116   9.342  14.497  15.319
  207ETHO    C120117   9.450  14.415  15.262
  207ETHO   H1120118   9.500  14.369  15.351
  207ETHO   H1320119   9.533  14.476  15.221
  207ETHO    C220120   9.430  14.304  15.162
  207ETHO   H2120121   9.521  14.242  15.151
  207ETHO   H2320122   9.407  14.354  15.066
  208ETHO    O120123   9.323  14.219  15.205
  208ETHO    C120124   9.290  14.123  15.102
  208ETHO   H1120125   9.376  14.075  15.050
  208ETHO   H1320126   9.230  14.049  15.159
  208ETHO    C220127   9.196  14.171  14.992
  208ETHO   H2120128   9.120  14.235  15.043
  208ETHO   H2320129   9.151  14.080  14.947
  209ETHO    O120130   9.261  14.245  14.888
  209ETHO    C120131   9.171  14.321  14.817
  209ETHO   H1120132   9.137  14.413  14.870
  209ETHO   H1320133   9.080  14.259  14.802
  209ETHO    C220134   9.213  14.355  14.673
  209ETHO   H2120135   9.130  14.392  14.609
  209ETHO   H2320136   9.239  14.265  14.613
  210ETHO    O120137   9.322  14.452  14.661
  210ETHO    C120138   9.451  14.413  14.700
  210ETHO   H1120139   9.452  14.398  14.810
  210ETHO   H1320140   9.471  14.315  14.651
  210ETHO    C220141   9.565  14.500  14.659
  210ETHO   H2120142   9.561  14.511  14.548
  210ETHO   H2320143   9.664  14.458  14.688
  211ETHO    O120144   9.546  14.627  14.717
  211ETHO    C120145   9.659  14.704  14.706
  211ETHO   H1120146   9.634  14.782  14.780
  211ETHO   H1320147   9.750  14.654  14.745
  211ETHO    C220148   9.676  14.774  14.572
  211ETHO   H2120149   9.749  14.857  14.585
  211ETHO   H2320150   9.583  14.819  14.530
  212ETHO    O120151   9.732  14.681  14.482
  212ETHO    C120152   9.767  14.751  14.359
  212ETHO   H1120153   9.673  14.780  14.306
  212ETHO   H1320154   9.837  14.835  14.378
  212ETHO    C220155   9.826  14.643  14.268
  212ETHO   H2120156   9.859  14.692  14.174
  212ETHO   H2320157   9.746  14.572  14.240
  213ETHO    O120158   9.946  14.577  14.314
  213ETHO    C120159   9.918  14.450  14.376
  213ETHO   H1120160  10.017  14.414  14.411
  213ETHO   H1320161   9.872  14.475  14.474
  213ETHO    C220162   9.855  14.334  14.285
  213ETHO   H2120163   9.752  14.368  14.263
  213ETHO   H2320164   9.853  14.247  14.354
  214ETHO    O120165   9.934  14.318  14.173
  214ETHO    C120166   9.909  14.202  14.081
  214ETHO   H1120167   9.820  14.226  14.019
  214ETHO   H1320168   9.881  14.117  14.148
  214ETHO    C220169  10.027  14.172  13.987
  214ETHO   H2120170  10.124  14.187  14.038
  214ETHO   H2320171  10.031  14.233  13.894
  215ETHO    O120172  10.004  14.036  13.950
  215ETHO    C120173  10.128  13.995  13.890
  215ETHO   H1120174  10.149  14.050  13.796
  215ETHO   H1320175  10.207  14.012  13.966
  215ETHO    C220176  10.129  13.844  13.850
  215ETHO   H2120177  10.058  13.822  13.767
  215ETHO   H2320178  10.087  13.795  13.941
  216ETHO    O120179  10.259  13.799  13.816
  216ETHO    C120180  10.300  13.833  13.684
  216ETHO   H1120181  10.410  13.850  13.683
  216ETHO   H1320182  10.253  13.926  13.645
  216ETHO    C220183  10.257  13.717  13.593
  216ETHO   H2120184  10.286  13.616  13.631
  216ETHO   H2320185  10.309  13.743  13.499
  217ETHO    O120186  10.123  13.720  13.561
  217ETHO    C120187  10.089  13.604  13.487
  217ETHO   H1120188  10.160  13.591  13.403
  217ETHO   H1320189  10.105  13.518  13.556
  217ETHO    C220190   9.953  13.609  13.425
  217ETHO   H2120191   9.972  13.540  13.341
  217ETHO   H2320192   9.927  13.710  13.386
  218ETHO    O120193   9.854  13.556  13.508
  218ETHO    C120194   9.732  13.531  13.439
  218ETHO   H1120195   9.756  13.479  13.344
  218ETHO   H1320196   9.696  13.634  13.416
  218ETHO    C220197   9.623  13.453  13.518
  218ETHO   H2120198   9.676  13.389  13.591
  218ETHO   H2320199   9.574  13.380  13.450
  219ETHO    O120200   9.536  13.533  13.594
  219ETHO    C120201   9.399  13.515  13.564
  219ETHO   H1120202   9.386  13.522  13.454
  219ETHO   H1320203   9.370  13.411  13.591
  219ETHO    C220204   9.309  13.614  13.627
  219ETHO   H2120205   9.344  13.613  13.732
  219ETHO   H2320206   9.209  13.567  13.615
  220ETHO    O120207   9.314  13.746  13.565
  220ETHO    C120208   9.219  13.829  13.628
  220ETHO   H1120209   9.230  13.831  13.738
  220ETHO   H1320210   9.122  13.777  13.612
  220ETHO    C220211   9.212  13.979  13.580
  220ETHO   H2120212   9.306  14.015  13.533
  220ETHO   H2320213   9.177  14.044  13.663
  221ETHO    O120214   9.110  13.976  13.483
  221ETHO    C120215   9.071  14.108  13.433
  221ETHO   H1120216   9.158  14.160  13.388
  221ETHO   H1320217   8.990  14.083  13.360
  221ETHO    C220218   9.016  14.194  13.547
  221ETHO   H2120219   8.960  14.133  13.620
  221ETHO   H2320220   8.938  14.263  13.508
  222ETHO    O120221   9.109  14.269  13.622
  222ETHO    C120222   9.069  14.309  13.750
  222ETHO   H1120223   9.037  14.218  13.803
  222ETHO   H1320224   9.157  14.361  13.793
  222ETHO    C220225   8.954  14.413  13.745
  222ETHO   H2120226   8.857  14.364  13.720
  222ETHO   H2320227   8.974  14.507  13.689
  223ETHO    O120228   8.934  14.471  13.876
  223ETHO    C120229   9.031  14.573  13.913
  223ETHO   H1120230   9.131  14.525  13.911
  223ETHO   H1320231   9.028  14.661  13.845
  223ETHO    C220232   9.000  14.625  14.054
  223ETHO   H2120233   8.892  14.640  14.075
  223ETHO   H2320234   9.049  14.724  14.052
  224ETHO    O120235   9.063  14.551  14.162
  224ETHO    C120236   8.992  14.428  14.182
  224ETHO   H1120237   8.885  14.441  14.153
  224ETHO   H1320238   9.023  14.340  14.122
  224ETHO    C220239   9.019  14.379  14.329
  224ETHO   H2120240   9.114  14.418  14.372
  224ETHO   H2320241   9.020  14.269  14.318
  225ETHO    O120242   8.919  14.412  14.413
  225ETHO    C120243   8.892  14.552  14.418
  225ETHO   H1120244   8.869  14.596  14.319
  225ETHO   H1320245   8.982  14.602  14.459
  225ETHO    C220246   8.779  14.594  14.508
  225ETHO   H2120247   8.699  14.517  14.511
  225ETHO   H2320248   8.738  14.685  14.461
  226ETHO    O120249   8.826  14.606  14.633
  226ETHO    C120250   8.728  14.642  14.729
  226ETHO   H1120251   8.685  14.742  14.707
  226ETHO   H1320252   8.642  14.572  14.733
  226ETHO    C220253   8.797  14.639  14.866
  226ETHO   H2120254   8.748  14.709  14.938
  226ETHO   H2320255   8.900  14.681  14.853
  227ETHO    O120256   8.804  14.511  14.929
  227ETHO    C120257   8.898  14.508  15.035
  227ETHO   H1120258   8.876  14.588  15.109
  227ETHO   H1320259   9.002  14.530  15.001
  227ETHO    C220260   8.891  14.367  15.099
  227ETHO   H2120261   8.980  14.346  15.162
  227ETHO   H2320262   8.896  14.293  15.016
  228ETHO    O120263   8.768  14.354  15.169
  228ETHO    C120264   8.776  14.394  15.310
  228ETHO   H1120265   8.836  14.318  15.365
  228ETHO   H1320266   8.814  14.497  15.324
  228ETHO    C220267   8.640  14.384  15.398
  228ETHO   H2120268   8.666  14.397  15.505
  228ETHO   H2320269   8.602  14.286  15.364
  229ETHO    O120270   8.542  14.476  15.363
  229ETHO    C120271   8.431  14.475  15.450
  229ETHO   H1120272   8.471  14.517  15.545
  229ETHO   H1320273   8.391  14.373  15.472
  229ETHO    C220274   8.299  14.556  15.414
  229ETHO   H2120275   8.219  14.529  15.486
  229ETHO   H2320276   8.261  14.524  15.315
  230ETHO    O120277   8.317  14.701  15.423
  230ETHO    C120278   8.197  14.770  15.400
  230ETHO   H1120279   8.186  14.790  15.291
  230ETHO   H1320280   8.121  14.714  15.460
  230ETHO    C220281   8.212  14.917  15.450
  230ETHO   H2120282   8.172  14.991  15.377
  230ETHO   H2320283   8.321  14.938  15.456
  231ETHO    O120284   8.142  14.947  15.566
  231ETHO    C120285   8.199  14.895  15.688
  231ETHO   H1120286   8.307  14.915  15.671
  231ETHO   H1320287   8.200  14.784  15.698
  231ETHO    C220288   8.154  14.967  15.816
  231ETHO   H2120289   8.152  15.078  15.813
  231ETHO   H2320290   8.220  14.940  15.900
  232ETHO    O120291   8.024  14.949  15.861
  232ETHO    C120292   7.991  14.815  15.887
  232ETHO   H1120293   7.963  14.767  15.791
  232ETHO   H1320294   8.071  14.754  15.935
  232ETHO    C220295   7.871  14.806  15.985
  232ETHO   H2120296   7.886  14.896  16.049
  232ETHO   H2320297   7.872  14.716  16.050
  233ETHO    O120298   7.743  14.819  15.924
  233ETHO    C120299   7.713  14.963  15.903
  233ETHO   H1120300   7.713  15.018  15.999
  233ETHO   H1320301   7.793  15.001  15.835
  233ETHO    C220302   7.579  14.988  15.830
  233ETHO   H2120303   7.565  14.902  15.761
  233ETHO   H2320304   7.576  15.074  15.760
  234ETHO    O120305   7.464  14.998  15.909
  234ETHO    C120306   7.347  14.952  15.844
  234ETHO   H1120307   7.310  15.042  15.792
  234ETHO   H1320308   7.363  14.863  15.779
  234ETHO    C220309   7.232  14.920  15.947
  234ETHO   H2120310   7.281  14.870  16.034
  234ETHO   H2320311   7.166  14.847  15.896
  235ETHO    O120312   7.153  15.040  15.972
  235ETHO    C120313   7.013  15.001  15.998
  235ETHO   H1120314   6.956  14.976  15.906
  235ETHO   H1320315   7.009  14.916  16.070
  235ETHO    C220316   6.934  15.102  16.076
  235ETHO   H2120317   6.922  15.190  16.009
  235ETHO   H2320318   6.981  15.123  16.174
  236ETHO    O120319   6.802  15.056  16.110
  236ETHO    C120320   6.754  15.098  16.236
  236ETHO   H1120321   6.645  15.084  16.252
  236ETHO   H1320322   6.772  15.207  16.236
  236ETHO    C220323   6.815  15.019  16.356
  236ETHO   H2120324   6.779  15.079  16.442
  236ETHO   H2320325   6.926  15.014  16.353
  237ETHO    O120326   6.763  14.888  16.364
  237ETHO    C120327   6.805  14.834  16.488
  237ETHO   H1120328   6.792  14.724  16.482
  237ETHO   H1320329   6.913  14.843  16.512
  237ETHO    C220330   6.722  14.883  16.614
  237ETHO   H2120331   6.740  14.987  16.649
  237ETHO   H2320332   6.759  14.825  16.701
  238ETHO    O120333   6.585  14.858  16.603
  238ETHO    C120334   6.515  14.836  16.728
  238ETHO   H1120335   6.519  14.927  16.792
  238ETHO   H1320336   6.565  14.749  16.775
  238ETHO    C220337   6.365  14.803  16.708
  238ETHO   H2120338   6.323  14.791  16.811
  238ETHO   H2320339   6.350  14.712  16.647
  239ETHO    O120340   6.317  14.919  16.644
  239ETHO    C120341   6.201  14.893  16.570
  239ETHO   H1120342   6.208  14.814  16.492
  239ETHO   H1320343   6.118  14.861  16.636
  239ETHO    C220344   6.144  15.013  16.496
  239ETHO   H2120345   6.220  15.082  16.454
  239ETHO   H2320346   6.079  14.979  16.413
  240ETHO    O120347   6.067  15.089  16.587
  240ETHO    C120348   5.932  15.114  16.553
  240ETHO   H1120349   5.874  15.024  16.524
  240ETHO   H1320350   5.937  15.180  16.463
  240ETHO    C220351   5.843  15.190  16.657
  240ETHO   H2120352   5.753  15.228  16.604
  240ETHO   H2320353   5.897  15.279  16.696
  241ETHO    O120354   5.810  15.101  16.761
  241ETHO    C120355   5.726  15.159  16.861
  241ETHO   H1120356   5.777  15.246  16.908
  241ETHO   H1320357   5.633  15.186  16.806
  241ETHO    C220358   5.680  15.075  16.976
  241ETHO   H2120359   5.631  15.144  17.048
  241ETHO   H2320360   5.763  15.019  17.024
  242ETHO    O120361   5.588  14.987  16.914
  242ETHO    C120362   5.497  14.916  17.002
  242ETHO   H1120363   5.419  14.985  17.042
  242ETHO   H1320364   5.556  14.863  17.080
  242ETHO    C220365   5.412  14.814  16.926
  242ETHO   H2120366   5.344  14.751  16.987
  242ETHO   H2320367   5.476  14.739  16.875
  243ETHO    O120368   5.334  14.891  16.828
  243ETHO    C120369   5.242  14.817  16.744
  243ETHO   H1120370   5.292  14.727  16.702
  243ETHO   H1320371   5.162  14.780  16.811
  243ETHO    C220372   5.172  14.902  16.644
  243ETHO   H2120373   5.175  15.005  16.687
  243ETHO   H2320374   5.066  14.870  16.639
  244ETHO    O120375   5.230  14.893  16.516
  244ETHO    C120376   5.189  14.994  16.436
  244ETHO   H1120377   5.288  15.030  16.400
  244ETHO   H1320378   5.133  15.074  16.488
  244ETHO    C220379   5.111  14.939  16.315
  244ETHO   H2120380   5.157  14.854  16.260
  244ETHO   H2320381   5.096  15.024  16.246
  245ETHO    O120382   4.983  14.894  16.356
  245ETHO    C120383   4.879  14.966  16.298
  245ETHO   H1120384   4.872  15.066  16.347
  245ETHO   H1320385   4.896  14.986  16.190
  245ETHO    C220386   4.751  14.895  16.338
  245ETHO   H2120387   4.665  14.963  16.318
  245ETHO   H2320388   4.752  14.862  16.444
  246ETHO    O120389   4.735  14.781  16.254
  246ETHO    C120390   4.636  14.689  16.294
  246ETHO   H1120391   4.548  14.743  16.334
  246ETHO   H1320392   4.682  14.618  16.366
  246ETHO    C220393   4.588  14.596  16.187
  246ETHO   H2120394   4.546  14.506  16.235
  246ETHO   H2320395   4.675  14.557  16.130
  247ETHO    O120396   4.479  14.641  16.096
  247ETHO    C120397   4.348  14.638  16.151
  247ETHO   H1120398   4.316  14.546  16.204
  247ETHO   H1320399   4.338  14.717  16.229
  247ETHO    C220400   4.236  14.654  16.047
  247ETHO   H2120401   4.249  14.575  15.970
  247ETHO   H2320402   4.135  14.628  16.086
  248ETHO    O120403   4.249  14.783  15.988
  248ETHO    C120404   4.129  14.823  15.915
  248ETHO   H1120405   4.122  14.764  15.821
  248ETHO   H1320406   4.043  14.794  15.978
  248ETHO    C220407   4.118  14.967  15.872
  248ETHO   H2120408   4.030  14.989  15.809
  248ETHO   H2320409   4.201  14.985  15.800
  249ETHO    O120410   4.130  15.054  15.978
  249ETHO    C120411   4.095  15.188  15.939
  249ETHO   H1120412   4.149  15.209  15.844
  249ETHO   H1320413   3.984  15.189  15.937
  249ETHO    C220414   4.149  15.280  16.049
  249ETHO   H2120415   4.140  15.248  16.155
  249ETHO   H2320416   4.106  15.381  16.031
  250ETHO    O120417   4.285  15.304  16.008
  250ETHO    C120418   4.365  15.383  16.101
  250ETHO   H1120419   4.324  15.367  16.203
  250ETHO   H1320420   4.473  15.357  16.097
  250ETHO    C220421   4.347  15.537  16.075
  250ETHO   H2120422   4.402  15.603  16.146
  250ETHO   H2320423   4.238  15.553  16.086
  251ETHO    O120424   4.402  15.558  15.946
  251ETHO    C120425   4.307  15.555  15.843
  251ETHO   H1120426   4.214  15.608  15.873
  251ETHO   H1320427   4.283  15.447  15.833
  251ETHO    C220428   4.385  15.596  15.725
  251ETHO   H2120429   4.438  15.692  15.743
  251ETHO   H2320430   4.324  15.598  15.632
  252ETHO    O120431   4.484  15.504  15.692
  252ETHO    C120432   4.562  15.539  15.581
  252ETHO   H1120433   4.511  15.538  15.482
  252ETHO   H1320434   4.605  15.640  15.594
  252ETHO    C220435   4.685  15.456  15.562
  252ETHO   H2120436   4.709  15.452  15.454
  252ETHO   H2320437   4.659  15.351  15.588
  253ETHO    O120438   4.792  15.509  15.643
  253ETHO    C120439   4.903  15.428  15.630
  253ETHO   H1120440   4.912  15.416  15.520
  253ETHO   H1320441   4.888  15.327  15.675
  253ETHO    C220442   5.030  15.494  15.692
  253ETHO   H2120443   5.072  15.562  15.615
  253ETHO   H2320444   5.102  15.411  15.705
  254ETHO    O120445   5.007  15.566  15.813
  254ETHO    C120446   5.115  15.553  15.903
  254ETHO   H1120447   5.088  15.581  16.007
  254ETHO   H1320448   5.151  15.448  15.903
  254ETHO    C220449   5.239  15.634  15.872
  254ETHO   H2120450   5.312  15.637  15.956
  254ETHO   H2320451   5.200  15.737  15.863
  255ETHO    O120452   5.290  15.583  15.753
  255ETHO    C120453   5.373  15.681  15.688
  255ETHO   H1120454   5.456  15.714  15.755
  255ETHO   H1320455   5.313  15.773  15.675
  255ETHO    C220456   5.434  15.636  15.554
  255ETHO   H2120457   5.481  15.720  15.498
  255ETHO   H2320458   5.362  15.587  15.486
  256ETHO    O120459   5.547  15.556  15.586
  256ETHO    C120460   5.527  15.421  15.566
  256ETHO   H1120461   5.438  15.384  15.619
  256ETHO   H1320462   5.512  15.408  15.456
  256ETHO    C220463   5.649  15.338  15.600
  256ETHO   H2120464   5.739  15.386  15.556
  256ETHO   H2320465   5.636  15.236  15.557
  257ETHO    O120466   5.658  15.328  15.741
  257ETHO    C120467   5.770  15.257  15.775
  257ETHO   H1120468   5.866  15.293  15.733
  257ETHO   H1320469   5.762  15.154  15.734
  257ETHO    C220470   5.793  15.255  15.929
  257ETHO   H2120471   5.786  15.351  15.984
  257ETHO   H2320472   5.896  15.215  15.934
  258ETHO    O120473   5.706  15.161  15.990
  258ETHO    C120474   5.713  15.162  16.134
  258ETHO   H1120475   5.813  15.180  16.179
  258ETHO   H1320476   5.650  15.246  16.169
  258ETHO    C220477   5.644  15.037  16.192
  258ETHO   H2120478   5.642  15.036  16.303
  258ETHO   H2320479   5.698  14.944  16.163
  259ETHO    O120480   5.521  15.032  16.133
  259ETHO    C120481   5.445  14.909  16.166
  259ETHO   H1120482   5.479  14.870  16.264
  259ETHO   H1320483   5.338  14.936  16.175
  259ETHO    C220484   5.464  14.795  16.058
  259ETHO   H2120485   5.440  14.703  16.116
  259ETHO   H2320486   5.569  14.784  16.023
  260ETHO    O120487   5.386  14.810  15.947
  260ETHO    C120488   5.362  14.682  15.880
  260ETHO   H1120489   5.456  14.638  15.841
  260ETHO   H1320490   5.309  14.614  15.951
  260ETHO    C220491   5.290  14.708  15.750
  260ETHO   H2120492   5.269  14.613  15.697
  260ETHO   H2320493   5.337  14.785  15.686
  261ETHO    O120494   5.162  14.744  15.791
  261ETHO    C120495   5.070  14.754  15.683
  261ETHO   H1120496   5.109  14.816  15.600
  261ETHO   H1320497   5.057  14.655  15.635
  261ETHO    C220498   4.936  14.815  15.719
  261ETHO   H2120499   4.894  14.852  15.623
  261ETHO   H2320500   4.954  14.906  15.782
  262ETHO    O120501   4.848  14.722  15.771
  262ETHO    C120502   4.751  14.770  15.865
  262ETHO   H1120503   4.735  14.879  15.849
  262ETHO   H1320504   4.796  14.757  15.966
  262ETHO    C220505   4.614  14.709  15.847
  262ETHO   H2120506   4.548  14.753  15.925
  262ETHO   H2320507   4.617  14.602  15.876
  263ETHO    O120508   4.546  14.733  15.722
  263ETHO    C120509   4.436  14.644  15.714
  263ETHO   H1120510   4.369  14.651  15.802
  263ETHO   H1320511   4.489  14.546  15.715
  263ETHO    C220512   4.351  14.647  15.592
  263ETHO   H2120513   4.338  14.754  15.564
  263ETHO   H2320514   4.251  14.603  15.610
  264ETHO    O120515   4.419  14.587  15.481
  264ETHO    C120516   4.332  14.570  15.366
  264ETHO   H1120517   4.270  14.662  15.359
  264ETHO   H1320518   4.256  14.489  15.368
  264ETHO    C220519   4.420  14.561  15.237
  264ETHO   H2120520   4.494  14.642  15.223
  264ETHO   H2320521   4.349  14.564  15.151
  265ETHO    O120522   4.490  14.439  15.236
  265ETHO    C120523   4.574  14.418  15.126
  265ETHO   H1120524   4.604  14.311  15.125
  265ETHO   H1320525   4.522  14.433  15.029
  265ETHO    C220526   4.704  14.503  15.129
  265ETHO   H2120527   4.682  14.610  15.144
  265ETHO   H2320528   4.758  14.480  15.035
  265ETHO    OZ20529   4.794  14.456  15.233
  265ETHO   HZ120530   4.835  14.535  15.270
    1ETHO    O120531  13.111  15.232   3.433
    1ETHO   HO120532  13.036  15.248   3.376
    1ETHO    C120533  13.065  15.118   3.503
    1ETHO   H1120534  13.058  15.030   3.435
    1ETHO   H1320535  12.966  15.137   3.551
    1ETHO    C220536  13.164  15.085   3.619
    1ETHO   H2120537  13.115  15.022   3.697
    1ETHO   H2320538  13.186  15.184   3.662
    2ETHO    O120539  13.288  15.034   3.571
    2ETHO    C120540  13.376  15.010   3.678
    2ETHO   H1120541  13.360  15.077   3.765
    2ETHO   H1320542  13.360  14.908   3.719
    2ETHO    C220543  13.519  15.049   3.638
    2ETHO   H2120544  13.579  15.042   3.732
    2ETHO   H2320545  13.516  15.149   3.590
    3ETHO    O120546  13.576  14.956   3.547
    3ETHO    C120547  13.702  15.001   3.508
    3ETHO   H1120548  13.763  15.037   3.593
    3ETHO   H1320549  13.684  15.085   3.438
    3ETHO    C220550  13.783  14.894   3.432
    3ETHO   H2120551  13.763  14.799   3.486
    3ETHO   H2320552  13.888  14.931   3.436
    4ETHO    O120553  13.744  14.880   3.298
    4ETHO    C120554  13.789  14.749   3.248
    4ETHO   H1120555  13.764  14.664   3.315
    4ETHO   H1320556  13.727  14.737   3.157
    4ETHO    C220557  13.929  14.750   3.200
    4ETHO   H2120558  13.956  14.648   3.167
    4ETHO   H2320559  13.997  14.788   3.280
    5ETHO    O120560  13.948  14.839   3.089
    5ETHO    C120561  14.083  14.840   3.049
    5ETHO   H1120562  14.153  14.852   3.134
    5ETHO   H1320563  14.113  14.745   3.000
    5ETHO    C220564  14.102  14.954   2.953
    5ETHO   H2120565  14.029  14.956   2.870
    5ETHO   H2320566  14.200  14.934   2.903
    6ETHO    O120567  14.121  15.075   3.019
    6ETHO    C120568  14.161  15.186   2.937
    6ETHO   H1120569  14.269  15.178   2.910
    6ETHO   H1320570  14.093  15.181   2.850
    6ETHO    C220571  14.151  15.325   3.022
    6ETHO   H2120572  14.211  15.393   2.958
    6ETHO   H2320573  14.201  15.321   3.121
    7ETHO    O120574  14.020  15.384   3.046
    7ETHO    C120575  14.026  15.498   3.125
    7ETHO   H1120576  14.110  15.489   3.198
    7ETHO   H1320577  14.048  15.580   3.053
    7ETHO    C220578  13.890  15.529   3.188
    7ETHO   H2120579  13.904  15.616   3.256
    7ETHO   H2320580  13.852  15.439   3.240
    8ETHO    O120581  13.788  15.563   3.092
    8ETHO    C120582  13.659  15.570   3.168
    8ETHO   H1120583  13.666  15.648   3.247
    8ETHO   H1320584  13.617  15.472   3.197
    8ETHO    C220585  13.548  15.624   3.071
    8ETHO   H2120586  13.452  15.636   3.125
    8ETHO   H2320587  13.535  15.552   2.987
    9ETHO    O120588  13.580  15.760   3.033
    9ETHO    C120589  13.474  15.808   2.944
    9ETHO   H1120590  13.468  15.733   2.862
    9ETHO   H1320591  13.374  15.819   2.991
    9ETHO    C220592  13.515  15.951   2.898
    9ETHO   H2120593  13.437  15.982   2.824
    9ETHO   H2320594  13.611  15.963   2.843
   10ETHO    O120595  13.495  16.054   2.997
   10ETHO    C120596  13.583  16.160   2.968
   10ETHO   H1120597  13.567  16.197   2.864
   10ETHO   H1320598  13.683  16.119   2.991
   10ETHO    C220599  13.572  16.286   3.056
   10ETHO   H2120600  13.463  16.310   3.066
   10ETHO   H2320601  13.627  16.366   3.003
   11ETHO    O120602  13.615  16.272   3.187
   11ETHO    C120603  13.738  16.340   3.196
   11ETHO   H1120604  13.807  16.321   3.110
   11ETHO   H1320605  13.729  16.450   3.209
   11ETHO    C220606  13.833  16.291   3.309
   11ETHO   H2120607  13.836  16.180   3.310
   11ETHO   H2320608  13.934  16.318   3.273
   12ETHO    O120609  13.821  16.346   3.441
   12ETHO    C120610  13.689  16.343   3.484
   12ETHO   H1120611  13.658  16.237   3.477
   12ETHO   H1320612  13.620  16.409   3.427
   12ETHO    C220613  13.679  16.402   3.630
   12ETHO   H2120614  13.575  16.413   3.665
   12ETHO   H2320615  13.716  16.507   3.629
   13ETHO    O120616  13.744  16.333   3.734
   13ETHO    C120617  13.770  16.423   3.840
   13ETHO   H1120618  13.844  16.495   3.801
   13ETHO   H1320619  13.683  16.475   3.885
   13ETHO    C220620  13.845  16.356   3.956
   13ETHO   H2120621  13.858  16.437   4.032
   13ETHO   H2320622  13.947  16.328   3.923
   14ETHO    O120623  13.782  16.236   4.021
   14ETHO    C120624  13.660  16.263   4.092
   14ETHO   H1120625  13.572  16.282   4.027
   14ETHO   H1320626  13.670  16.352   4.157
   14ETHO    C220627  13.614  16.137   4.172
   14ETHO   H2120628  13.624  16.054   4.099
   14ETHO   H2320629  13.508  16.149   4.200
   15ETHO    O120630  13.699  16.095   4.282
   15ETHO    C120631  13.637  16.132   4.407
   15ETHO   H1120632  13.624  16.243   4.410
   15ETHO   H1320633  13.542  16.076   4.415
   15ETHO    C220634  13.715  16.078   4.530
   15ETHO   H2120635  13.668  16.094   4.629
   15ETHO   H2320636  13.724  15.969   4.507
   16ETHO    O120637  13.845  16.132   4.527
   16ETHO    C120638  13.917  16.115   4.646
   16ETHO   H1120639  13.892  16.015   4.689
   16ETHO   H1320640  14.025  16.109   4.618
   16ETHO    C220641  13.895  16.207   4.768
   16ETHO   H2120642  13.959  16.163   4.848
   16ETHO   H2320643  13.788  16.201   4.797
   17ETHO    O120644  13.934  16.337   4.751
   17ETHO    C120645  13.932  16.415   4.866
   17ETHO   H1120646  13.829  16.422   4.906
   17ETHO   H1320647  13.986  16.370   4.952
   17ETHO    C220648  13.971  16.561   4.854
   17ETHO   H2120649  14.068  16.578   4.802
   17ETHO   H2320650  13.958  16.604   4.955
   18ETHO    O120651  13.879  16.638   4.773
   18ETHO    C120652  13.917  16.765   4.774
   18ETHO   H1120653  13.915  16.800   4.880
   18ETHO   H1320654  14.013  16.791   4.725
   18ETHO    C220655  13.819  16.849   4.688
   18ETHO   H2120656  13.717  16.829   4.728
   18ETHO   H2320657  13.833  16.818   4.583
   19ETHO    O120658  13.838  16.993   4.690
   19ETHO    C120659  13.771  17.051   4.811
   19ETHO   H1120660  13.794  17.004   4.908
   19ETHO   H1320661  13.662  17.032   4.799
   19ETHO    C220662  13.812  17.202   4.805
   19ETHO   H2120663  13.781  17.234   4.703
   19ETHO   H2320664  13.923  17.204   4.811
   20ETHO    O120665  13.746  17.283   4.908
   20ETHO    C120666  13.810  17.408   4.919
   20ETHO   H1120667  13.906  17.389   4.973
   20ETHO   H1320668  13.835  17.450   4.819
   20ETHO    C220669  13.726  17.520   4.980
   20ETHO   H2120670  13.631  17.532   4.925
   20ETHO   H2320671  13.780  17.615   4.963
   21ETHO    O120672  13.704  17.509   5.124
   21ETHO    C120673  13.639  17.626   5.168
   21ETHO   H1120674  13.560  17.609   5.244
   21ETHO   H1320675  13.597  17.678   5.079
   21ETHO    C220676  13.731  17.728   5.235
   21ETHO   H2120677  13.669  17.819   5.247
   21ETHO   H2320678  13.820  17.753   5.173
   22ETHO    O120679  13.776  17.703   5.363
   22ETHO    C120680  13.705  17.755   5.470
   22ETHO   H1120681  13.597  17.749   5.448
   22ETHO   H1320682  13.713  17.693   5.562
   22ETHO    C220683  13.741  17.900   5.511
   22ETHO   H2120684  13.730  17.960   5.418
   22ETHO   H2320685  13.671  17.947   5.584
   23ETHO    O120686  13.875  17.902   5.554
   23ETHO    C120687  13.908  18.027   5.622
   23ETHO   H1120688  13.826  18.072   5.681
   23ETHO   H1320689  13.922  18.101   5.540
   23ETHO    C220690  14.039  18.022   5.701
   23ETHO   H2120691  14.059  18.120   5.748
   23ETHO   H2320692  14.121  17.988   5.634
   24ETHO    O120693  14.041  17.927   5.799
   24ETHO    C120694  13.971  17.962   5.913
   24ETHO   H1120695  14.005  18.057   5.959
   24ETHO   H1320696  13.862  17.964   5.888
   24ETHO    C220697  13.991  17.850   6.013
   24ETHO   H2120698  13.944  17.759   5.969
   24ETHO   H2320699  13.920  17.874   6.094
   25ETHO    O120700  14.120  17.832   6.076
   25ETHO    C120701  14.136  17.898   6.201
   25ETHO   H1120702  14.091  17.838   6.282
   25ETHO   H1320703  14.099  18.003   6.208
   25ETHO    C220704  14.282  17.903   6.240
   25ETHO   H2120705  14.325  17.802   6.224
   25ETHO   H2320706  14.299  17.904   6.350
   26ETHO    O120707  14.361  18.006   6.172
   26ETHO    C120708  14.499  17.991   6.198
   26ETHO   H1120709  14.531  18.097   6.207
   26ETHO   H1320710  14.518  17.948   6.298
   26ETHO    C220711  14.581  17.920   6.088
   26ETHO   H2120712  14.684  17.925   6.131
   26ETHO   H2320713  14.566  17.969   5.990
   27ETHO    O120714  14.552  17.776   6.076
   27ETHO    C120715  14.632  17.723   5.975
   27ETHO   H1120716  14.737  17.748   6.000
   27ETHO   H1320717  14.604  17.784   5.886
   27ETHO    C220718  14.637  17.572   5.948
   27ETHO   H2120719  14.661  17.505   6.033
   27ETHO   H2320720  14.714  17.551   5.872
   28ETHO    O120721  14.515  17.525   5.892
   28ETHO    C120722  14.523  17.392   5.838
   28ETHO   H1120723  14.583  17.388   5.744
   28ETHO   H1320724  14.560  17.332   5.923
   28ETHO    C220725  14.375  17.349   5.799
   28ETHO   H2120726  14.355  17.408   5.707
   28ETHO   H2320727  14.305  17.361   5.884
   29ETHO    O120728  14.364  17.214   5.758
   29ETHO    C120729  14.231  17.202   5.699
   29ETHO   H1120730  14.242  17.229   5.592
   29ETHO   H1320731  14.168  17.282   5.744
   29ETHO    C220732  14.180  17.061   5.703
   29ETHO   H2120733  14.256  16.999   5.651
   29ETHO   H2320734  14.091  17.055   5.637
   30ETHO    O120735  14.175  17.008   5.830
   30ETHO    C120736  14.120  16.875   5.827
   30ETHO   H1120737  14.051  16.860   5.913
   30ETHO   H1320738  14.053  16.867   5.739
   30ETHO    C220739  14.224  16.763   5.817
   30ETHO   H2120740  14.302  16.776   5.739
   30ETHO   H2320741  14.168  16.668   5.808
   31ETHO    O120742  14.282  16.744   5.945
   31ETHO    C120743  14.414  16.688   5.932
   31ETHO   H1120744  14.477  16.755   5.870
   31ETHO   H1320745  14.460  16.702   6.033
   31ETHO    C220746  14.410  16.541   5.907
   31ETHO   H2120747  14.369  16.513   5.807
   31ETHO   H2320748  14.328  16.497   5.968
   32ETHO    O120749  14.535  16.470   5.916
   32ETHO    C120750  14.545  16.386   6.030
   32ETHO   H1120751  14.486  16.427   6.115
   32ETHO   H1320752  14.493  16.288   6.021
   32ETHO    C220753  14.689  16.363   6.065
   32ETHO   H2120754  14.731  16.451   6.119
   32ETHO   H2320755  14.733  16.350   5.964
   33ETHO    O120756  14.727  16.245   6.138
   33ETHO    C120757  14.732  16.274   6.279
   33ETHO   H1120758  14.823  16.331   6.308
   33ETHO   H1320759  14.644  16.330   6.318
   33ETHO    C220760  14.725  16.133   6.353
   33ETHO   H2120761  14.638  16.086   6.302
   33ETHO   H2320762  14.693  16.128   6.459
   34ETHO    O120763  14.839  16.062   6.321
   34ETHO    C120764  14.827  15.924   6.343
   34ETHO   H1120765  14.762  15.881   6.264
   34ETHO   H1320766  14.766  15.906   6.433
   34ETHO    C220767  14.955  15.837   6.354
   34ETHO   H2120768  14.925  15.738   6.393
   34ETHO   H2320769  15.023  15.890   6.425
   35ETHO    O120770  15.010  15.829   6.219
   35ETHO    C120771  15.142  15.779   6.217
   35ETHO   H1120772  15.215  15.845   6.270
   35ETHO   H1320773  15.143  15.674   6.254
   35ETHO    C220774  15.177  15.767   6.064
   35ETHO   H2120775  15.093  15.728   6.003
   35ETHO   H2320776  15.261  15.694   6.055
   36ETHO    O120777  15.223  15.897   6.012
   36ETHO    C120778  15.261  15.897   5.868
   36ETHO   H1120779  15.164  15.903   5.815
   36ETHO   H1320780  15.303  15.799   5.836
   36ETHO    C220781  15.338  16.020   5.825
   36ETHO   H2120782  15.372  16.006   5.720
   36ETHO   H2320783  15.431  16.028   5.884
   37ETHO    O120784  15.259  16.143   5.823
   37ETHO    C120785  15.342  16.251   5.784
   37ETHO   H1120786  15.419  16.248   5.864
   37ETHO   H1320787  15.389  16.230   5.686
   37ETHO    C220788  15.281  16.390   5.790
   37ETHO   H2120789  15.357  16.469   5.777
   37ETHO   H2320790  15.252  16.399   5.897
   38ETHO    O120791  15.174  16.413   5.707
   38ETHO    C120792  15.123  16.545   5.707
   38ETHO   H1120793  15.055  16.564   5.622
   38ETHO   H1320794  15.200  16.623   5.687
   38ETHO    C220795  15.051  16.576   5.846
   38ETHO   H2120796  15.132  16.598   5.919
   38ETHO   H2320797  14.999  16.483   5.879
   39ETHO    O120798  14.961  16.685   5.830
   39ETHO    C120799  14.861  16.696   5.928
   39ETHO   H1120800  14.783  16.617   5.917
   39ETHO   H1320801  14.917  16.684   6.023
   39ETHO    C220802  14.808  16.837   5.905
   39ETHO   H2120803  14.901  16.895   5.884
   39ETHO   H2320804  14.750  16.859   5.997
   40ETHO    O120805  14.721  16.840   5.789
   40ETHO    C120806  14.642  16.953   5.787
   40ETHO   H1120807  14.703  17.046   5.781
   40ETHO   H1320808  14.579  16.970   5.877
   40ETHO    C220809  14.556  16.958   5.664
   40ETHO   H2120810  14.500  17.054   5.662
   40ETHO   H2320811  14.486  16.871   5.664
   41ETHO    O120812  14.635  16.954   5.544
   41ETHO    C120813  14.568  16.987   5.421
   41ETHO   H1120814  14.509  16.899   5.390
   41ETHO   H1320815  14.495  17.070   5.435
   41ETHO    C220816  14.665  17.015   5.303
   41ETHO   H2120817  14.591  17.020   5.221
   41ETHO   H2320818  14.750  16.944   5.293
   42ETHO    O120819  14.717  17.150   5.326
   42ETHO    C120820  14.837  17.178   5.254
   42ETHO   H1120821  14.918  17.114   5.295
   42ETHO   H1320822  14.832  17.161   5.144
   42ETHO    C220823  14.868  17.329   5.278
   42ETHO   H2120824  14.969  17.351   5.237
   42ETHO   H2320825  14.862  17.358   5.385
   43ETHO    O120826  14.773  17.390   5.198
   43ETHO    C120827  14.787  17.531   5.194
   43ETHO   H1120828  14.692  17.584   5.220
   43ETHO   H1320829  14.850  17.568   5.277
   43ETHO    C220830  14.857  17.566   5.061
   43ETHO   H2120831  14.839  17.673   5.040
   43ETHO   H2320832  14.810  17.505   4.980
   44ETHO    O120833  14.992  17.538   5.091
   44ETHO    C120834  15.078  17.492   4.987
   44ETHO   H1120835  15.178  17.459   5.022
   44ETHO   H1320836  15.040  17.394   4.951
   44ETHO    C220837  15.094  17.598   4.869
   44ETHO   H2120838  15.173  17.557   4.802
   44ETHO   H2320839  15.120  17.694   4.918
   45ETHO    O120840  14.982  17.620   4.778
   45ETHO    C120841  15.019  17.630   4.635
   45ETHO   H1120842  15.104  17.701   4.627
   45ETHO   H1320843  14.925  17.664   4.587
   45ETHO    C220844  15.056  17.499   4.555
   45ETHO   H2120845  15.142  17.446   4.602
   45ETHO   H2320846  15.075  17.533   4.451
   46ETHO    O120847  14.951  17.409   4.555
   46ETHO    C120848  14.966  17.307   4.462
   46ETHO   H1120849  14.949  17.341   4.358
   46ETHO   H1320850  15.071  17.270   4.465
   46ETHO    C220851  14.879  17.177   4.485
   46ETHO   H2120852  14.902  17.117   4.394
   46ETHO   H2320853  14.771  17.199   4.488
   47ETHO    O120854  14.905  17.098   4.604
   47ETHO    C120855  14.882  16.965   4.582
   47ETHO   H1120856  14.960  16.907   4.529
   47ETHO   H1320857  14.788  16.959   4.523
   47ETHO    C220858  14.849  16.882   4.709
   47ETHO   H2120859  14.825  16.779   4.675
   47ETHO   H2320860  14.755  16.917   4.756
   48ETHO    O120861  14.949  16.870   4.806
   48ETHO    C120862  14.897  16.831   4.931
   48ETHO   H1120863  14.823  16.900   4.979
   48ETHO   H1320864  14.851  16.730   4.922
   48ETHO    C220865  15.009  16.819   5.035
   48ETHO   H2120866  15.086  16.751   4.992
   48ETHO   H2320867  15.068  16.912   5.050
   49ETHO    O120868  14.955  16.768   5.158
   49ETHO    C120869  15.050  16.754   5.262
   49ETHO   H1120870  15.143  16.811   5.241
   49ETHO   H1320871  15.076  16.647   5.278
   49ETHO    C220872  15.003  16.808   5.394
   49ETHO   H2120873  14.943  16.734   5.451
   49ETHO   H2320874  14.938  16.896   5.374
   50ETHO    O120875  15.110  16.855   5.472
   50ETHO    C120876  15.056  16.917   5.588
   50ETHO   H1120877  14.987  16.997   5.554
   50ETHO   H1320878  14.997  16.846   5.650
   50ETHO    C220879  15.168  16.969   5.682
   50ETHO   H2120880  15.235  16.884   5.709
   50ETHO   H2320881  15.116  17.004   5.774
   51ETHO    O120882  15.242  17.084   5.628
   51ETHO    C120883  15.362  17.039   5.558
   51ETHO   H1120884  15.348  17.012   5.451
   51ETHO   H1320885  15.408  16.956   5.614
   51ETHO    C220886  15.467  17.158   5.556
   51ETHO   H2120887  15.419  17.236   5.495
   51ETHO   H2320888  15.562  17.123   5.509
   52ETHO    O120889  15.515  17.209   5.682
   52ETHO    C120890  15.589  17.334   5.667
   52ETHO   H1120891  15.672  17.329   5.593
   52ETHO   H1320892  15.517  17.407   5.622
   52ETHO    C220893  15.636  17.387   5.802
   52ETHO   H2120894  15.692  17.481   5.783
   52ETHO   H2320895  15.705  17.306   5.836
   53ETHO    O120896  15.531  17.412   5.887
   53ETHO    C120897  15.571  17.475   6.009
   53ETHO   H1120898  15.582  17.584   5.994
   53ETHO   H1320899  15.496  17.464   6.090
   53ETHO    C220900  15.710  17.436   6.067
   53ETHO   H2120901  15.722  17.327   6.047
   53ETHO   H2320902  15.710  17.437   6.178
   54ETHO    O120903  15.829  17.505   6.021
   54ETHO    C120904  15.946  17.429   6.042
   54ETHO   H1120905  15.945  17.388   6.146
   54ETHO   H1320906  15.940  17.350   5.965
   54ETHO    C220907  16.067  17.518   6.009
   54ETHO   H2120908  16.158  17.459   6.035
   54ETHO   H2320909  16.081  17.610   6.069
   55ETHO    O120910  16.069  17.533   5.862
   55ETHO    C120911  16.178  17.614   5.824
   55ETHO   H1120912  16.159  17.636   5.717
   55ETHO   H1320913  16.181  17.707   5.884
   55ETHO    C220914  16.309  17.540   5.825
   55ETHO   H2120915  16.374  17.625   5.794
   55ETHO   H2320916  16.341  17.510   5.927
   56ETHO    O120917  16.307  17.426   5.733
   56ETHO    C120918  16.418  17.337   5.750
   56ETHO   H1120919  16.398  17.293   5.850
   56ETHO   H1320920  16.516  17.388   5.750
   56ETHO    C220921  16.424  17.240   5.632
   56ETHO   H2120922  16.493  17.158   5.660
   56ETHO   H2320923  16.458  17.285   5.536
   57ETHO    O120924  16.289  17.186   5.607
   57ETHO    C120925  16.271  17.119   5.483
   57ETHO   H1120926  16.321  17.177   5.402
   57ETHO   H1320927  16.334  17.031   5.508
   57ETHO    C220928  16.136  17.057   5.444
   57ETHO   H2120929  16.082  17.026   5.536
   57ETHO   H2320930  16.157  16.973   5.376
   58ETHO    O120931  16.056  17.150   5.372
   58ETHO    C120932  15.993  17.252   5.449
   58ETHO   H1120933  16.065  17.330   5.481
   58ETHO   H1320934  15.949  17.209   5.542
   58ETHO    C220935  15.892  17.337   5.365
   58ETHO   H2120936  15.936  17.340   5.263
   58ETHO   H2320937  15.879  17.441   5.401
   59ETHO    O120938  15.763  17.274   5.348
   59ETHO    C120939  15.768  17.167   5.251
   59ETHO   H1120940  15.848  17.181   5.175
   59ETHO   H1320941  15.787  17.073   5.307
   59ETHO    C220942  15.637  17.158   5.171
   59ETHO   H2120943  15.632  17.221   5.080
   59ETHO   H2320944  15.550  17.182   5.236
   60ETHO    O120945  15.616  17.021   5.138
   60ETHO    C120946  15.531  17.006   5.031
   60ETHO   H1120947  15.582  17.056   4.946
   60ETHO   H1320948  15.436  17.063   5.038
   60ETHO    C220949  15.504  16.860   4.990
   60ETHO   H2120950  15.600  16.804   5.000
   60ETHO   H2320951  15.463  16.853   4.887
   61ETHO    O120952  15.417  16.812   5.086
   61ETHO    C120953  15.376  16.678   5.057
   61ETHO   H1120954  15.297  16.662   5.133
   61ETHO   H1320955  15.339  16.669   4.952
   61ETHO    C220956  15.486  16.570   5.078
   61ETHO   H2120957  15.577  16.585   5.016
   61ETHO   H2320958  15.435  16.473   5.056
   62ETHO    O120959  15.522  16.578   5.214
   62ETHO    C120960  15.600  16.464   5.251
   62ETHO   H1120961  15.693  16.503   5.298
   62ETHO   H1320962  15.627  16.406   5.160
   62ETHO    C220963  15.529  16.397   5.365
   62ETHO   H2120964  15.517  16.465   5.452
   62ETHO   H2320965  15.598  16.318   5.404
   63ETHO    O120966  15.406  16.334   5.343
   63ETHO    C120967  15.296  16.408   5.401
   63ETHO   H1120968  15.322  16.432   5.506
   63ETHO   H1320969  15.291  16.504   5.345
   63ETHO    C220970  15.167  16.325   5.397
   63ETHO   H2120971  15.081  16.386   5.433
   63ETHO   H2320972  15.192  16.238   5.462
   64ETHO    O120973  15.128  16.292   5.265
   64ETHO    C120974  15.192  16.174   5.222
   64ETHO   H1120975  15.161  16.087   5.285
   64ETHO   H1320976  15.301  16.193   5.219
   64ETHO    C220977  15.153  16.133   5.075
   64ETHO   H2120978  15.042  16.134   5.061
   64ETHO   H2320979  15.197  16.035   5.048
   65ETHO    O120980  15.204  16.222   4.986
   65ETHO    C120981  15.171  16.180   4.855
   65ETHO   H1120982  15.198  16.076   4.827
   65ETHO   H1320983  15.061  16.179   4.837
   65ETHO    C220984  15.233  16.267   4.755
   65ETHO   H2120985  15.199  16.235   4.654
   65ETHO   H2320986  15.344  16.262   4.766
   66ETHO    O120987  15.198  16.409   4.764
   66ETHO    C120988  15.130  16.459   4.645
   66ETHO   H1120989  15.027  16.419   4.653
   66ETHO   H1320990  15.192  16.440   4.555
   66ETHO    C220991  15.112  16.614   4.648
   66ETHO   H2120992  15.059  16.640   4.742
   66ETHO   H2320993  15.045  16.643   4.564
   67ETHO    O120994  15.241  16.678   4.640
   67ETHO    C120995  15.244  16.816   4.662
   67ETHO   H1120996  15.145  16.861   4.637
   67ETHO   H1320997  15.243  16.832   4.772
   67ETHO    C220998  15.354  16.883   4.579
   67ETHO   H2120999  15.336  16.992   4.568
   67ETHO   H2321000  15.342  16.832   4.481
   68ETHO    O121001  15.483  16.848   4.633
   68ETHO    C121002  15.592  16.882   4.547
   68ETHO   H1121003  15.571  16.837   4.447
   68ETHO   H1321004  15.609  16.991   4.540
   68ETHO    C221005  15.717  16.813   4.611
   68ETHO   H2121006  15.721  16.838   4.719
   68ETHO   H2321007  15.806  16.859   4.562
   69ETHO    O121008  15.721  16.673   4.600
   69ETHO    C121009  15.845  16.613   4.636
   69ETHO   H1121010  15.838  16.510   4.597
   69ETHO   H1321011  15.933  16.659   4.587
   69ETHO    C221012  15.880  16.596   4.785
   69ETHO   H2121013  15.965  16.525   4.794
   69ETHO   H2321014  15.794  16.560   4.846
   70ETHO    O121015  15.916  16.728   4.836
   70ETHO    C121016  15.925  16.721   4.978
   70ETHO   H1121017  15.832  16.683   5.026
   70ETHO   H1321018  16.004  16.647   5.000
   70ETHO    C221019  15.949  16.863   5.028
   70ETHO   H2121020  15.963  16.865   5.139
   70ETHO   H2321021  15.866  16.926   4.991
   71ETHO    O121022  16.069  16.913   4.974
   71ETHO    C121023  16.099  17.044   5.024
   71ETHO   H1121024  16.093  17.036   5.135
   71ETHO   H1321025  16.019  17.108   4.980
   71ETHO    C221026  16.237  17.082   4.986
   71ETHO   H2121027  16.302  17.010   5.041
   71ETHO   H2321028  16.278  17.179   5.023
   72ETHO    O121029  16.261  17.073   4.844
   72ETHO    C121030  16.397  17.056   4.819
   72ETHO   H1121031  16.449  17.153   4.825
   72ETHO   H1321032  16.434  16.976   4.887
   72ETHO    C221033  16.418  16.988   4.687
   72ETHO   H2121034  16.335  16.915   4.673
   72ETHO   H2321035  16.513  16.936   4.664
   73ETHO    O121036  16.394  17.076   4.582
   73ETHO    C121037  16.520  17.132   4.546
   73ETHO   H1121038  16.587  17.055   4.503
   73ETHO   H1321039  16.566  17.184   4.633
   73ETHO    C221040  16.503  17.226   4.430
   73ETHO   H2121041  16.480  17.168   4.338
   73ETHO   H2321042  16.600  17.280   4.426
   74ETHO    O121043  16.404  17.326   4.464
   74ETHO    C121044  16.459  17.432   4.552
   74ETHO   H1121045  16.512  17.382   4.635
   74ETHO   H1321046  16.533  17.494   4.497
   74ETHO    C221047  16.353  17.522   4.610
   74ETHO   H2121048  16.260  17.461   4.613
   74ETHO   H2321049  16.339  17.620   4.560
   75ETHO    O121050  16.367  17.554   4.749
   75ETHO    C121051  16.478  17.647   4.763
   75ETHO   H1121052  16.463  17.732   4.693
   75ETHO   H1321053  16.566  17.594   4.723
   75ETHO    C221054  16.500  17.698   4.907
   75ETHO   H2121055  16.409  17.748   4.945
   75ETHO   H2321056  16.562  17.791   4.903
   76ETHO    O121057  16.556  17.609   4.997
   76ETHO    C121058  16.455  17.511   5.025
   76ETHO   H1121059  16.352  17.547   5.005
   76ETHO   H1321060  16.469  17.423   4.959
   76ETHO    C221061  16.458  17.472   5.173
   76ETHO   H2121062  16.361  17.429   5.208
   76ETHO   H2321063  16.469  17.568   5.227
   77ETHO    O121064  16.557  17.375   5.204
   77ETHO    C121065  16.548  17.250   5.134
   77ETHO   H1121066  16.539  17.255   5.023
   77ETHO   H1321067  16.462  17.189   5.167
   77ETHO    C221068  16.680  17.170   5.164
   77ETHO   H2121069  16.775  17.215   5.129
   77ETHO   H2321070  16.665  17.075   5.108
   78ETHO    O121071  16.695  17.138   5.301
   78ETHO    C121072  16.794  17.040   5.318
   78ETHO   H1121073  16.771  16.952   5.254
   78ETHO   H1321074  16.888  17.085   5.278
   78ETHO    C221075  16.823  16.999   5.462
   78ETHO   H2121076  16.852  17.088   5.522
   78ETHO   H2321077  16.911  16.932   5.471
   79ETHO    O121078  16.716  16.931   5.522
   79ETHO    C121079  16.751  16.891   5.654
   79ETHO   H1121080  16.827  16.814   5.629
   79ETHO   H1321081  16.784  16.980   5.712
   79ETHO    C221082  16.624  16.841   5.722
   79ETHO   H2121083  16.645  16.771   5.806
   79ETHO   H2321084  16.564  16.793   5.642
   80ETHO    O121085  16.545  16.947   5.784
   80ETHO    C121086  16.402  16.920   5.796
   80ETHO   H1121087  16.352  17.011   5.836
   80ETHO   H1321088  16.354  16.888   5.701
   80ETHO    C221089  16.374  16.813   5.901
   80ETHO   H2121090  16.268  16.824   5.932
   80ETHO   H2321091  16.432  16.831   5.994
   81ETHO    O121092  16.381  16.680   5.840
   81ETHO    C121093  16.372  16.581   5.940
   81ETHO   H1121094  16.456  16.582   6.011
   81ETHO   H1321095  16.281  16.599   6.001
   81ETHO    C221096  16.374  16.434   5.898
   81ETHO   H2121097  16.472  16.420   5.848
   81ETHO   H2321098  16.362  16.361   5.981
   82ETHO    O121099  16.264  16.401   5.812
   82ETHO    C121100  16.291  16.279   5.741
   82ETHO   H1121101  16.317  16.204   5.818
   82ETHO   H1321102  16.379  16.300   5.676
   82ETHO    C221103  16.169  16.230   5.660
   82ETHO   H2121104  16.192  16.136   5.607
   82ETHO   H2321105  16.136  16.308   5.588
   83ETHO    O121106  16.077  16.200   5.762
   83ETHO    C121107  15.954  16.161   5.699
   83ETHO   H1121108  15.930  16.240   5.624
   83ETHO   H1321109  15.973  16.063   5.649
   83ETHO    C221110  15.834  16.148   5.790
   83ETHO   H2121111  15.745  16.139   5.723
   83ETHO   H2321112  15.821  16.241   5.849
   84ETHO    O121113  15.833  16.034   5.868
   84ETHO    C121114  15.734  16.042   5.965
   84ETHO   H1121115  15.639  16.088   5.928
   84ETHO   H1321116  15.780  16.118   6.032
   84ETHO    C221117  15.713  15.911   6.032
   84ETHO   H2121118  15.660  15.929   6.127
   84ETHO   H2321119  15.813  15.873   6.062
   85ETHO    O121120  15.655  15.807   5.948
   85ETHO    C121121  15.574  15.711   6.019
   85ETHO   H1121122  15.617  15.667   6.112
   85ETHO   H1321123  15.482  15.766   6.045
   85ETHO    C221124  15.545  15.593   5.930
   85ETHO   H2121125  15.623  15.516   5.948
   85ETHO   H2321126  15.547  15.631   5.826
   86ETHO    O121127  15.418  15.531   5.953
   86ETHO    C121128  15.400  15.405   5.897
   86ETHO   H1121129  15.455  15.330   5.956
   86ETHO   H1321130  15.447  15.394   5.797
   86ETHO    C221131  15.247  15.357   5.883
   86ETHO   H2121132  15.184  15.399   5.964
   86ETHO   H2321133  15.247  15.247   5.871
   87ETHO    O121134  15.193  15.408   5.760
   87ETHO    C121135  15.067  15.337   5.735
   87ETHO   H1121136  15.049  15.337   5.625
   87ETHO   H1321137  15.054  15.240   5.787
   87ETHO    C221138  14.959  15.439   5.792
   87ETHO   H2121139  14.855  15.405   5.772
   87ETHO   H2321140  14.970  15.545   5.760
   88ETHO    O121141  14.952  15.431   5.933
   88ETHO    C121142  14.820  15.484   5.983
   88ETHO   H1121143  14.735  15.416   5.964
   88ETHO   H1321144  14.786  15.580   5.939
   88ETHO    C221145  14.821  15.503   6.138
   88ETHO   H2121146  14.886  15.589   6.165
   88ETHO   H2321147  14.869  15.409   6.173
   89ETHO    O121148  14.691  15.506   6.184
   89ETHO    C121149  14.687  15.537   6.325
   89ETHO   H1121150  14.757  15.470   6.380
   89ETHO   H1321151  14.734  15.634   6.350
   89ETHO    C221152  14.541  15.535   6.383
   89ETHO   H2121153  14.482  15.613   6.331
   89ETHO   H2321154  14.555  15.565   6.489
   90ETHO    O121155  14.488  15.404   6.368
   90ETHO    C121156  14.367  15.397   6.431
   90ETHO   H1121157  14.366  15.467   6.516
   90ETHO   H1321158  14.287  15.429   6.362
   90ETHO    C221159  14.334  15.251   6.469
   90ETHO   H2121160  14.317  15.181   6.384
   90ETHO   H2321161  14.243  15.246   6.533
   91ETHO    O121162  14.443  15.202   6.556
   91ETHO    C121163  14.397  15.125   6.661
   91ETHO   H1121164  14.348  15.184   6.741
   91ETHO   H1321165  14.325  15.052   6.618
   91ETHO    C221166  14.510  15.051   6.718
   91ETHO   H2121167  14.566  14.995   6.640
   91ETHO   H2321168  14.471  14.975   6.788
   92ETHO    O121169  14.593  15.137   6.797
   92ETHO    C121170  14.668  15.056   6.890
   92ETHO   H1121171  14.601  14.993   6.953
   92ETHO   H1321172  14.726  14.985   6.828
   92ETHO    C221173  14.749  15.133   6.990
   92ETHO   H2121174  14.713  15.232   7.026
   92ETHO   H2321175  14.846  15.163   6.945
   93ETHO    O121176  14.779  15.054   7.103
   93ETHO    C121177  14.892  14.970   7.091
   93ETHO   H1121178  14.986  15.028   7.099
   93ETHO   H1321179  14.899  14.912   6.996
   93ETHO    C221180  14.905  14.863   7.199
   93ETHO   H2121181  14.904  14.915   7.297
   93ETHO   H2321182  15.008  14.824   7.189
   94ETHO    O121183  14.807  14.768   7.178
   94ETHO    C121184  14.789  14.685   7.288
   94ETHO   H1121185  14.892  14.672   7.328
   94ETHO   H1321186  14.726  14.736   7.364
   94ETHO    C221187  14.726  14.548   7.255
   94ETHO   H2121188  14.742  14.462   7.323
   94ETHO   H2321189  14.769  14.519   7.157
   95ETHO    O121190  14.582  14.564   7.266
   95ETHO    C121191  14.523  14.458   7.193
   95ETHO   H1121192  14.578  14.362   7.201
   95ETHO   H1321193  14.552  14.488   7.090
   95ETHO    C221194  14.374  14.439   7.188
   95ETHO   H2121195  14.356  14.390   7.091
   95ETHO   H2321196  14.314  14.532   7.200
   96ETHO    O121197  14.317  14.344   7.279
   96ETHO    C121198  14.270  14.415   7.396
   96ETHO   H1121199  14.357  14.480   7.420
   96ETHO   H1321200  14.176  14.473   7.381
   96ETHO    C221201  14.242  14.311   7.510
   96ETHO   H2121202  14.325  14.238   7.513
   96ETHO   H2321203  14.147  14.256   7.496
   97ETHO    O121204  14.234  14.365   7.645
   97ETHO    C121205  14.111  14.442   7.657
   97ETHO   H1121206  14.045  14.421   7.570
   97ETHO   H1321207  14.149  14.544   7.633
   97ETHO    C221208  14.036  14.448   7.792
   97ETHO   H2121209  13.980  14.544   7.801
   97ETHO   H2321210  14.114  14.451   7.871
   98ETHO    O121211  13.962  14.329   7.796
   98ETHO    C121212  13.914  14.297   7.930
   98ETHO   H1121213  13.994  14.306   8.007
   98ETHO   H1321214  13.841  14.376   7.955
   98ETHO    C221215  13.844  14.159   7.931
   98ETHO   H2121216  13.763  14.146   7.856
   98ETHO   H2321217  13.813  14.139   8.036
   99ETHO    O121218  13.949  14.063   7.927
   99ETHO    C121219  13.913  13.927   7.939
   99ETHO   H1121220  13.850  13.894   7.853
   99ETHO   H1321221  13.856  13.909   8.033
   99ETHO    C221222  14.036  13.831   7.948
   99ETHO   H2121223  14.101  13.847   7.859
   99ETHO   H2321224  14.002  13.725   7.954
  100ETHO    O121225  14.111  13.856   8.067
  100ETHO    C121226  14.228  13.768   8.070
  100ETHO   H1121227  14.199  13.662   8.058
  100ETHO   H1321228  14.301  13.803   7.994
  100ETHO    C221229  14.325  13.782   8.190
  100ETHO   H2121230  14.349  13.890   8.204
  100ETHO   H2321231  14.420  13.730   8.168
  101PROX    O121232  14.274  13.712   8.307
  101PROX    C121233  14.172  13.793   8.372
  101PROX   H1121234  14.222  13.889   8.394
  101PROX   H1321235  14.085  13.819   8.308
  101PROX    C221236  14.122  13.727   8.502
  101PROX   H2121237  14.218  13.700   8.551
  101PROX    C321238  14.011  13.619   8.486
  101PROX   H3121239  13.911  13.661   8.462
  101PROX   H3221240  14.030  13.546   8.404
  101PROX   H3321241  14.013  13.561   8.581
  102PROX    O121242  14.056  13.829   8.580
  102PROX    C121243  14.060  13.793   8.720
  102PROX   H1121244  13.966  13.750   8.758
  102PROX   H1321245  14.134  13.711   8.736
  102PROX    C221246  14.115  13.904   8.813
  102PROX   H2121247  14.187  13.973   8.763
  102PROX    C321248  14.182  13.841   8.940
  102PROX   H3121249  14.102  13.788   8.995
  102PROX   H3221250  14.270  13.779   8.909
  102PROX   H3321251  14.214  13.921   9.010
  103PROX    O121252  14.015  13.990   8.853
  103PROX    C121253  13.956  14.061   8.743
  103PROX   H1121254  14.033  14.084   8.666
  103PROX   H1321255  13.883  14.000   8.685
  103PROX    C221256  13.894  14.196   8.782
  103PROX   H2121257  13.825  14.175   8.867
  103PROX    C321258  13.820  14.254   8.659
  103PROX   H3121259  13.747  14.178   8.622
  103PROX   H3221260  13.764  14.343   8.693
  103PROX   H3321261  13.886  14.267   8.571
  104PROX    O121262  13.993  14.289   8.805
  104PROX    C121263  14.050  14.284   8.938
  104PROX   H1121264  13.965  14.274   9.009
  104PROX   H1321265  14.124  14.202   8.941
  104PROX    C221266  14.148  14.400   8.966
  104PROX   H2121267  14.089  14.493   8.979
  104PROX    C321268  14.250  14.427   8.855
  104PROX   H3121269  14.190  14.438   8.761
  104PROX   H3221270  14.301  14.523   8.881
  104PROX   H3321271  14.334  14.357   8.838
  105PROX    O121272  14.216  14.381   9.095
  105PROX    C121273  14.328  14.294   9.095
  105PROX   H1121274  14.307  14.210   9.025
  105PROX   H1321275  14.417  14.343   9.050
  105PROX    C221276  14.360  14.242   9.242
  105PROX   H2121277  14.260  14.201   9.270
  105PROX    C321278  14.399  14.351   9.338
  105PROX   H3121279  14.494  14.397   9.305
  105PROX   H3221280  14.330  14.438   9.336
  105PROX   H3321281  14.398  14.309   9.441
  106PROX    O121282  14.458  14.130   9.234
  106PROX    C121283  14.454  14.058   9.356
  106PROX   H1121284  14.512  14.124   9.424
  106PROX   H1321285  14.352  14.055   9.398
  106PROX    C221286  14.510  13.915   9.336
  106PROX   H2121287  14.616  13.930   9.305
  106PROX    C321288  14.426  13.836   9.237
  106PROX   H3121289  14.433  13.888   9.139
  106PROX   H3221290  14.463  13.733   9.222
  106PROX   H3321291  14.323  13.837   9.278
  107PROX    O121292  14.508  13.846   9.462
  107PROX    C121293  14.558  13.713   9.477
  107PROX   H1121294  14.491  13.636   9.434
  107PROX   H1321295  14.648  13.698   9.413
  107PROX    C221296  14.592  13.680   9.628
  107PROX   H2121297  14.577  13.770   9.691
  107PROX    C321298  14.740  13.638   9.643
  107PROX   H3121299  14.778  13.574   9.561
  107PROX   H3221300  14.787  13.738   9.636
  107PROX   H3321301  14.756  13.595   9.744
  108PROX    O121302  14.509  13.582   9.688
  108PROX    C121303  14.377  13.631   9.710
  108PROX   H1121304  14.382  13.719   9.778
  108PROX   H1321305  14.339  13.665   9.612
  108PROX    C221306  14.283  13.522   9.776
  108PROX   H2121307  14.195  13.579   9.811
  108PROX    C321308  14.348  13.476   9.904
  108PROX   H3121309  14.425  13.407   9.864
  108PROX   H3221310  14.385  13.564   9.961
  108PROX   H3321311  14.277  13.414   9.963
  109PROX    O121312  14.254  13.415   9.679
  109PROX    C121313  14.137  13.343   9.722
  109PROX   H1121314  14.135  13.251   9.660
  109PROX   H1321315  14.155  13.305   9.825
  109PROX    C221316  14.008  13.420   9.711
  109PROX   H2121317  14.021  13.516   9.765
  109PROX    C321318  13.893  13.341   9.765
  109PROX   H3121319  13.916  13.315   9.870
  109PROX   H3221320  13.796  13.394   9.769
  109PROX   H3321321  13.871  13.249   9.705
  110PROX    O121322  13.974  13.441   9.570
  110PROX    C121323  13.917  13.573   9.547
  110PROX   H1121324  13.808  13.572   9.528
  110PROX   H1321325  13.940  13.641   9.632
  110PROX    C221326  13.983  13.622   9.414
  110PROX   H2121327  13.956  13.557   9.328
  110PROX    C321328  14.133  13.614   9.432
  110PROX   H3121329  14.168  13.672   9.520
  110PROX   H3221330  14.179  13.513   9.435
  110PROX   H3321331  14.188  13.658   9.346
  111PROX    O121332  13.949  13.766   9.399
  111PROX    C121333  13.961  13.816   9.271
  111PROX   H1121334  14.067  13.830   9.238
  111PROX   H1321335  13.898  13.759   9.200
  111PROX    C221336  13.904  13.965   9.278
  111PROX   H2121337  13.801  13.963   9.321
  111PROX    C321338  13.898  14.018   9.136
  111PROX   H3121339  13.820  13.960   9.083
  111PROX   H3221340  13.852  14.119   9.136
  111PROX   H3321341  13.995  14.006   9.082
  112PROX    O121342  13.992  14.047   9.355
  112PROX    C121343  13.913  14.149   9.428
  112PROX   H1121344  13.978  14.236   9.452
  112PROX   H1321345  13.827  14.184   9.367
  112PROX    C221346  13.855  14.082   9.557
  112PROX   H2121347  13.898  13.980   9.571
  112PROX    C321348  13.701  14.089   9.561
  112PROX   H3121349  13.671  14.048   9.660
  112PROX   H3221350  13.655  14.190   9.554
  112PROX   H3321351  13.649  14.017   9.494
  113PROX    O121352  13.898  14.160   9.665
  113PROX    C121353  14.032  14.136   9.718
  113PROX   H1121354  14.104  14.189   9.652
  113PROX   H1321355  14.037  14.202   9.807
  113PROX    C221356  14.086  13.998   9.759
  113PROX   H2121357  14.084  13.937   9.666
  113PROX    C321358  14.006  13.936   9.879
  113PROX   H3121359  14.032  13.984   9.976
  113PROX   H3221360  13.896  13.924   9.871
  113PROX   H3321361  14.037  13.831   9.902
  114PROX    O121362  14.216  14.019   9.810
  114PROX    C121363  14.332  14.024   9.713
  114PROX   H1121364  14.335  13.933   9.650
  114PROX   H1321365  14.307  14.108   9.644
  114PROX    C221366  14.474  14.057   9.779
  114PROX   H2121367  14.461  14.145   9.845
  114PROX    C321368  14.592  14.076   9.681
  114PROX   H3121369  14.605  13.992   9.611
  114PROX   H3221370  14.565  14.165   9.620
  114PROX   H3321371  14.686  14.093   9.738
  115PROX    O121372  14.513  13.946   9.859
  115PROX    C121373  14.436  13.931   9.977
  115PROX   H1121374  14.379  14.026   9.991
  115PROX   H1321375  14.361  13.849   9.968
  115PROX    C221376  14.526  13.891  10.099
  115PROX   H2121377  14.582  13.984  10.122
  115PROX    C321378  14.624  13.777  10.061
  115PROX   H3121379  14.702  13.822   9.996
  115PROX   H3221380  14.678  13.735  10.148
  115PROX   H3321381  14.562  13.696  10.016
  116PROX    O121382  14.442  13.859  10.207
  116PROX    C121383  14.356  13.976  10.239
  116PROX   H1121384  14.401  14.077  10.231
  116PROX   H1321385  14.263  13.966  10.179
  116PROX    C221386  14.323  13.967  10.387
  116PROX   H2121387  14.420  13.969  10.441
  116PROX    C321388  14.239  13.850  10.434
  116PROX   H3121389  14.291  13.755  10.408
  116PROX   H3221390  14.230  13.844  10.545
  116PROX   H3321391  14.138  13.844  10.388
  117PROX    O121392  14.268  14.088  10.438
  117PROX    C121393  14.125  14.116  10.409
  117PROX   H1121394  14.075  14.042  10.343
  117PROX   H1321395  14.073  14.118  10.507
  117PROX    C221396  14.104  14.251  10.343
  117PROX   H2121397  14.148  14.329  10.409
  117PROX    C321398  13.950  14.274  10.334
  117PROX   H3121399  13.888  14.253  10.424
  117PROX   H3221400  13.934  14.383  10.322
  117PROX   H3321401  13.912  14.218  10.246
  118PROX    O121402  14.152  14.243  10.214
  118PROX    C121403  14.147  14.362  10.136
  118PROX   H1121404  14.047  14.397  10.101
  118PROX   H1321405  14.178  14.447  10.201
  118PROX    C221406  14.238  14.342  10.021
  118PROX   H2121407  14.203  14.253   9.965
  118PROX    C321408  14.380  14.341  10.072
  118PROX   H3121409  14.396  14.441  10.116
  118PROX   H3221410  14.386  14.262  10.150
  118PROX   H3321411  14.461  14.325   9.998
  119PROX    O121412  14.226  14.453   9.933
  119PROX    C121413  14.262  14.429   9.796
  119PROX   H1121414  14.368  14.396   9.799
  119PROX   H1321415  14.190  14.353   9.758
  119PROX    C221416  14.252  14.565   9.726
  119PROX   H2121417  14.177  14.635   9.768
  119PROX    C321418  14.201  14.545   9.583
  119PROX   H3121419  14.096  14.516   9.565
  119PROX   H3221420  14.240  14.621   9.511
  119PROX   H3321421  14.258  14.457   9.546
  120PROX    O121422  14.376  14.628   9.725
  120PROX    C121423  14.431  14.670   9.850
  120PROX   H1121424  14.361  14.740   9.900
  120PROX   H1321425  14.457  14.587   9.920
  120PROX    C221426  14.558  14.751   9.830
  120PROX   H2121427  14.604  14.758   9.931
  120PROX    C321428  14.523  14.896   9.797
  120PROX   H3121429  14.462  14.960   9.864
  120PROX   H3221430  14.625  14.938   9.783
  120PROX   H3321431  14.473  14.910   9.699
  121PROX    O121432  14.643  14.700   9.726
  121PROX    C121433  14.703  14.567   9.762
  121PROX   H1121434  14.783  14.576   9.838
  121PROX   H1321435  14.626  14.502   9.808
  121PROX    C221436  14.765  14.492   9.638
  121PROX   H2121437  14.852  14.554   9.609
  121PROX    C321438  14.667  14.472   9.522
  121PROX   H3121439  14.631  14.571   9.489
  121PROX   H3221440  14.731  14.430   9.441
  121PROX   H3321441  14.586  14.398   9.542
  122PROX    O121442  14.820  14.374   9.688
  122PROX    C121443  14.887  14.305   9.583
  122PROX   H1121444  14.809  14.257   9.520
  122PROX   H1321445  14.957  14.365   9.522
  122PROX    C221446  14.971  14.190   9.639
  122PROX   H2121447  14.921  14.146   9.727
  122PROX    C321448  15.103  14.235   9.699
  122PROX   H3121449  15.169  14.286   9.626
  122PROX   H3221450  15.080  14.311   9.777
  122PROX   H3321451  15.156  14.146   9.740
  123PROX    O121452  14.990  14.088   9.542
  123PROX    C121453  15.008  13.960   9.601
  123PROX   H1121454  15.079  13.945   9.684
  123PROX   H1321455  14.913  13.932   9.652
  123PROX    C221456  15.061  13.859   9.487
  123PROX   H2121457  15.149  13.910   9.439
  123PROX    C321458  14.967  13.823   9.375
  123PROX   H3121459  14.868  13.782   9.404
  123PROX   H3221460  14.933  13.914   9.321
  123PROX   H3321461  15.018  13.754   9.305
  124PROX    O121462  15.094  13.740   9.554
  124PROX    C121463  15.195  13.665   9.486
  124PROX   H1121464  15.211  13.663   9.376
  124PROX   H1321465  15.288  13.694   9.539
  124PROX    C221466  15.169  13.508   9.520
  124PROX   H2121467  15.062  13.492   9.543
  124PROX    C321468  15.246  13.449   9.636
  124PROX   H3121469  15.355  13.457   9.617
  124PROX   H3221470  15.221  13.500   9.731
  124PROX   H3321471  15.226  13.342   9.658
  125PROX    O121472  15.202  13.431   9.408
  125PROX    C121473  15.115  13.450   9.299
  125PROX   H1121474  15.048  13.537   9.315
  125PROX   H1321475  15.180  13.464   9.210
  125PROX    C221476  15.028  13.320   9.276
  125PROX   H2121477  14.976  13.296   9.372
  125PROX    C321478  15.111  13.207   9.212
  125PROX   H3121479  15.162  13.248   9.122
  125PROX   H3221480  15.182  13.165   9.287
  125PROX   H3321481  15.045  13.121   9.187
  126PROX    O121482  14.924  13.350   9.179
  126PROX    C121483  14.822  13.427   9.236
  126PROX   H1121484  14.770  13.359   9.307
  126PROX   H1321485  14.855  13.506   9.307
  126PROX    C221486  14.711  13.467   9.136
  126PROX   H2121487  14.723  13.397   9.050
  126PROX    C321488  14.717  13.615   9.090
  126PROX   H3121489  14.672  13.689   9.160
  126PROX   H3221490  14.823  13.643   9.072
  126PROX   H3321491  14.662  13.627   8.995
  127PROX    O121492  14.579  13.457   9.199
  127PROX    C121493  14.476  13.428   9.105
  127PROX   H1121494  14.462  13.511   9.032
  127PROX   H1321495  14.499  13.333   9.052
  127PROX    C221496  14.349  13.399   9.188
  127PROX   H2121497  14.335  13.493   9.245
  127PROX    C321498  14.387  13.284   9.287
  127PROX   H3121499  14.300  13.258   9.351
  127PROX   H3221500  14.428  13.195   9.234
  127PROX   H3321501  14.464  13.329   9.353
  128PROX    O121502  14.232  13.386   9.102
  128PROX    C121503  14.120  13.343   9.177
  128PROX   H1121504  14.138  13.239   9.211
  128PROX   H1321505  14.103  13.408   9.265
  128PROX    C221506  14.003  13.341   9.072
  128PROX   H2121507  14.018  13.275   8.984
  128PROX    C321508  13.976  13.482   9.016
  128PROX   H3121509  13.868  13.508   9.014
  128PROX   H3221510  14.024  13.562   9.078
  128PROX   H3321511  14.011  13.508   8.914
  129PROX    O121512  13.885  13.305   9.140
  129PROX    C121513  13.871  13.161   9.151
  129PROX   H1121514  13.806  13.125   9.068
  129PROX   H1321515  13.966  13.103   9.147
  129PROX    C221516  13.801  13.126   9.281
  129PROX   H2121517  13.727  13.209   9.287
  129PROX    C321518  13.888  13.130   9.402
  129PROX   H3121519  13.958  13.044   9.407
  129PROX   H3221520  13.943  13.227   9.397
  129PROX   H3321521  13.823  13.123   9.492
  130PROX    O121522  13.744  12.992   9.265
  130PROX    C121523  13.599  12.998   9.256
  130PROX   H1121524  13.569  13.085   9.193
  130PROX   H1321525  13.556  12.905   9.212
  130PROX    C221526  13.542  13.009   9.397
  130PROX   H2121527  13.624  12.975   9.464
  130PROX    C321528  13.422  12.922   9.426
  130PROX   H3121529  13.449  12.814   9.429
  130PROX   H3221530  13.375  12.944   9.524
  130PROX   H3321531  13.348  12.930   9.343
  131PROX    O121532  13.515  13.147   9.418
  131PROX    C121533  13.548  13.183   9.558
  131PROX   H1121534  13.503  13.106   9.625
  131PROX   H1321535  13.655  13.198   9.585
  131PROX    C221536  13.471  13.315   9.578
  131PROX   H2121537  13.362  13.294   9.578
  131PROX    C321538  13.513  13.416   9.474
  131PROX   H3121539  13.489  13.387   9.369
  131PROX   H3221540  13.483  13.520   9.498
  131PROX   H3321541  13.623  13.409   9.481
  132PROX    O121542  13.510  13.366   9.708
  132PROX    C121543  13.485  13.292   9.819
  132PROX   H1121544  13.508  13.183   9.817
  132PROX   H1321545  13.569  13.313   9.889
  132PROX    C221546  13.345  13.318   9.888
  132PROX   H2121547  13.265  13.282   9.819
  132PROX    C321548  13.309  13.465   9.903
  132PROX   H3121549  13.296  13.524   9.810
  132PROX   H3221550  13.211  13.468   9.954
  132PROX   H3321551  13.374  13.515   9.977
  133PROX    O121552  13.339  13.250  10.016
  133PROX    C121553  13.295  13.118  10.003
  133PROX   H1121554  13.195  13.107   9.954
  133PROX   H1321555  13.370  13.074   9.934
  133PROX    C221556  13.298  13.041  10.135
  133PROX   H2121557  13.396  13.059  10.183
  133PROX    C321558  13.281  12.893  10.117
  133PROX   H3121559  13.283  12.841  10.215
  133PROX   H3221560  13.183  12.865  10.073
  133PROX   H3321561  13.366  12.850  10.059
  134PROX    O121562  13.192  13.088  10.215
  134PROX    C121563  13.227  13.190  10.311
  134PROX   H1121564  13.259  13.154  10.411
  134PROX   H1321565  13.315  13.247  10.276
  134PROX    C221566  13.112  13.295  10.311
  134PROX   H2121567  13.023  13.230  10.326
  134PROX    C321568  13.084  13.376  10.185
  134PROX   H3121569  13.046  13.311  10.103
  134PROX   H3221570  13.025  13.467  10.207
  134PROX   H3321571  13.184  13.405  10.147
  135PROX    O121572  13.117  13.372  10.428
  135PROX    C121573  13.193  13.489  10.416
  135PROX   H1121574  13.284  13.467  10.357
  135PROX   H1321575  13.133  13.565  10.361
  135PROX    C221576  13.230  13.539  10.558
  135PROX   H2121577  13.288  13.454  10.599
  135PROX    C321578  13.107  13.545  10.651
  135PROX   H3121579  13.033  13.623  10.626
  135PROX   H3221580  13.059  13.448  10.675
  135PROX   H3321581  13.144  13.578  10.751
  136PROX    O121582  13.289  13.666  10.559
  136PROX    C121583  13.415  13.665  10.494
  136PROX   H1121584  13.476  13.576  10.519
  136PROX   H1321585  13.395  13.665  10.385
  136PROX    C221586  13.503  13.784  10.533
  136PROX   H2121587  13.514  13.783  10.643
  136PROX    C321588  13.458  13.916  10.472
  136PROX   H3121589  13.355  13.935  10.509
  136PROX   H3221590  13.519  13.998  10.516
  136PROX   H3321591  13.467  13.919  10.362
  137PROX    O121592  13.624  13.763  10.471
  137PROX    C121593  13.737  13.810  10.547
  137PROX   H1121594  13.734  13.920  10.562
  137PROX   H1321595  13.746  13.760  10.646
  137PROX    C221596  13.863  13.788  10.463
  137PROX   H2121597  13.953  13.826  10.516
  137PROX    C321598  13.862  13.863  10.322
  137PROX   H3121599  13.850  13.970  10.348
  137PROX   H3221600  13.954  13.851  10.260
  137PROX   H3321601  13.769  13.830  10.272
  138PROX    O121602  13.876  13.641  10.444
  138PROX    C121603  14.003  13.604  10.385
  138PROX   H1121604  14.034  13.660  10.293
  138PROX   H1321605  14.086  13.612  10.458
  138PROX    C221606  13.995  13.448  10.349
  138PROX   H2121607  14.002  13.391  10.444
  138PROX    C321608  14.099  13.393  10.247
  138PROX   H3121609  14.077  13.293  10.202
  138PROX   H3221610  14.104  13.464  10.161
  138PROX   H3321611  14.199  13.391  10.294
  139PROX    O121612  13.864  13.418  10.301
  139PROX    C121613  13.831  13.461  10.172
  139PROX   H1121614  13.894  13.548  10.146
  139PROX   H1321615  13.856  13.387  10.093
  139PROX    C221616  13.683  13.505  10.171
  139PROX   H2121617  13.663  13.583  10.248
  139PROX    C321618  13.582  13.391  10.194
  139PROX   H3121619  13.612  13.304  10.132
  139PROX   H3221620  13.579  13.372  10.304
  139PROX   H3321621  13.480  13.416  10.159
  140PROX    O121622  13.656  13.561  10.042
  140PROX    C121623  13.687  13.702  10.041
  140PROX   H1121624  13.637  13.742  10.132
  140PROX   H1321625  13.798  13.708  10.043
  140PROX    C221626  13.617  13.773   9.927
  140PROX   H2121627  13.506  13.765   9.928
  140PROX    C321628  13.656  13.708   9.791
  140PROX   H3121629  13.590  13.620   9.775
  140PROX   H3221630  13.643  13.780   9.707
  140PROX   H3321631  13.765  13.684   9.793
  141PROX    O121632  13.641  13.911   9.929
  141PROX    C121633  13.582  13.982  10.038
  141PROX   H1121634  13.473  13.960  10.039
  141PROX   H1321635  13.622  13.952  10.137
  141PROX    C221636  13.624  14.132  10.019
  141PROX   H2121637  13.580  14.178   9.928
  141PROX    C321638  13.778  14.158  10.016
  141PROX   H3121639  13.823  14.090  10.091
  141PROX   H3221640  13.825  14.145   9.916
  141PROX   H3321641  13.812  14.258  10.051
  142PROX    O121642  13.576  14.205  10.123
  142PROX    C121643  13.435  14.222  10.126
  142PROX   H1121644  13.403  14.304  10.058
  142PROX   H1321645  13.383  14.129  10.095
  142PROX    C221646  13.391  14.259  10.272
  142PROX   H2121647  13.459  14.206  10.342
  142PROX    C321648  13.251  14.214  10.301
  142PROX   H3121649  13.176  14.273  10.244
  142PROX   H3221650  13.238  14.106  10.278
  142PROX   H3321651  13.240  14.224  10.411
  143PROX    O121652  13.408  14.394  10.310
  143PROX    C121653  13.541  14.433  10.293
  143PROX   H1121654  13.612  14.356  10.329
  143PROX   H1321655  13.567  14.451  10.187
  143PROX    C221656  13.578  14.569  10.361
  143PROX   H2121657  13.554  14.558  10.469
  143PROX    C321658  13.488  14.680  10.305
  143PROX   H3121659  13.518  14.708  10.202
  143PROX   H3221660  13.383  14.646  10.292
  143PROX   H3321661  13.498  14.769  10.371
  144PROX    O121662  13.717  14.584  10.338
  144PROX    C121663  13.760  14.716  10.385
  144PROX   H1121664  13.717  14.801  10.327
  144PROX   H1321665  13.712  14.735  10.483
  144PROX    C221666  13.909  14.736  10.407
  144PROX   H2121667  13.933  14.653  10.477
  144PROX    C321668  13.960  14.870  10.460
  144PROX   H3121669  13.930  14.894  10.565
  144PROX   H3221670  14.071  14.879  10.460
  144PROX   H3321671  13.919  14.955  10.402
  145PROX    O121672  13.978  14.698  10.286
  145PROX    C121673  13.998  14.804  10.189
  145PROX   H1121674  13.926  14.889  10.194
  145PROX   H1321675  14.097  14.842  10.221
  145PROX    C221676  14.031  14.753  10.047
  145PROX   H2121677  14.097  14.665  10.066
  145PROX    C321678  14.109  14.868   9.981
  145PROX   H3121679  14.050  14.961   9.967
  145PROX   H3221680  14.200  14.886  10.043
  145PROX   H3321681  14.149  14.846   9.880
  146PROX    O121682  13.920  14.722   9.977
  146PROX    C121683  13.844  14.611  10.024
  146PROX   H1121684  13.907  14.546  10.088
  146PROX   H1321685  13.772  14.649  10.100
  146PROX    C221686  13.775  14.530   9.912
  146PROX   H2121687  13.703  14.454   9.950
  146PROX    C321688  13.881  14.462   9.832
  146PROX   H3121689  13.829  14.408   9.750
  146PROX   H3221690  13.960  14.536   9.807
  146PROX   H3321691  13.943  14.383   9.879
  147PROX    O121692  13.705  14.617   9.829
  147PROX    C121693  13.577  14.662   9.882
  147PROX   H1121694  13.595  14.685   9.990
  147PROX   H1321695  13.538  14.755   9.837
  147PROX    C221696  13.464  14.557   9.846
  147PROX   H2121697  13.463  14.477   9.923
  147PROX    C321698  13.500  14.486   9.712
  147PROX   H3121699  13.525  14.560   9.633
  147PROX   H3221700  13.592  14.423   9.719
  147PROX   H3321701  13.408  14.434   9.677
  148PROX    O121702  13.341  14.627   9.850
  148PROX    C121703  13.319  14.688   9.979
  148PROX   H1121704  13.335  14.615  10.061
  148PROX   H1321705  13.388  14.772  10.003
  148PROX    C221706  13.180  14.747   9.998
  148PROX   H2121707  13.156  14.822   9.920
  148PROX    C321708  13.175  14.807  10.140
  148PROX   H3121709  13.197  14.720  10.205
  148PROX   H3221710  13.262  14.875  10.155
  148PROX   H3321711  13.077  14.855  10.162
  149PROX    O121712  13.075  14.652   9.998
  149PROX    C121713  13.044  14.585   9.875
  149PROX   H1121714  12.936  14.563   9.869
  149PROX   H1321715  13.068  14.653   9.791
  149PROX    C221716  13.106  14.441   9.859
  149PROX   H2121717  13.198  14.424   9.919
  149PROX    C321718  13.134  14.418   9.710
  149PROX   H3121719  13.217  14.485   9.677
  149PROX   H3221720  13.169  14.313   9.696
  149PROX   H3321721  13.046  14.445   9.648
  150PROX    O121722  13.009  14.337   9.892
  150PROX    C121723  13.067  14.206   9.922
  150PROX   H1121724  13.122  14.166   9.835
  150PROX   H1321725  13.139  14.221  10.005
  150PROX    C221726  12.959  14.104   9.968
  150PROX   H2121727  12.873  14.110   9.898
  150PROX    C321728  12.915  14.141  10.104
  150PROX   H3121729  12.878  14.246  10.104
  150PROX   H3221730  12.829  14.074  10.127
  150PROX   H3321731  12.985  14.126  10.189
  151PROX    O121732  12.993  13.967   9.963
  151PROX    C121733  13.091  13.931  10.062
  151PROX   H1121734  13.152  14.020  10.089
  151PROX   H1321735  13.033  13.898  10.151
  151PROX    C221736  13.194  13.818  10.029
  151PROX   H2121737  13.138  13.724  10.009
  151PROX    C321738  13.277  13.773  10.148
  151PROX   H3121739  13.349  13.690  10.129
  151PROX   H3221740  13.331  13.864  10.181
  151PROX   H3321741  13.218  13.725  10.229
  152PROX    O121742  13.281  13.862   9.922
  152PROX    C121743  13.218  13.867   9.791
  152PROX   H1121744  13.169  13.771   9.766
  152PROX   H1321745  13.144  13.947   9.769
  152PROX    C221746  13.320  13.912   9.686
  152PROX   H2121747  13.415  13.856   9.692
  152PROX    C321748  13.347  14.059   9.712
  152PROX   H3121749  13.259  14.122   9.686
  152PROX   H3221750  13.357  14.082   9.820
  152PROX   H3321751  13.434  14.102   9.658
  153PROX    O121752  13.260  13.905   9.551
  153PROX    C121753  13.273  13.766   9.501
  153PROX   H1121754  13.377  13.738   9.476
  153PROX   H1321755  13.244  13.696   9.582
  153PROX    C221756  13.164  13.752   9.390
  153PROX   H2121757  13.195  13.822   9.310
  153PROX    C321758  13.033  13.796   9.447
  153PROX   H3121759  13.026  13.907   9.457
  153PROX   H3221760  12.947  13.767   9.383
  153PROX   H3321761  13.018  13.756   9.550
  154PROX    O121762  13.158  13.618   9.353
  154PROX    C121763  13.093  13.604   9.226
  154PROX   H1121764  13.047  13.503   9.225
  154PROX   H1321765  13.008  13.675   9.212
  154PROX    C221766  13.184  13.630   9.106
  154PROX   H2121767  13.250  13.716   9.132
  154PROX    C321768  13.109  13.659   8.972
  154PROX   H3121769  13.189  13.674   8.897
  154PROX   H3221770  13.035  13.580   8.948
  154PROX   H3321771  13.054  13.755   8.978
  155PROX    O121772  13.266  13.514   9.085
  155PROX    C121773  13.379  13.504   9.170
  155PROX   H1121774  13.372  13.571   9.257
  155PROX   H1321775  13.392  13.397   9.197
  155PROX    C221776  13.507  13.564   9.090
  155PROX   H2121777  13.506  13.495   9.003
  155PROX    C321778  13.639  13.548   9.174
  155PROX   H3121779  13.722  13.589   9.111
  155PROX   H3221780  13.633  13.587   9.277
  155PROX   H3321781  13.655  13.443   9.206
  156PROX    O121782  13.483  13.699   9.042
  156PROX    C121783  13.527  13.805   9.135
  156PROX   H1121784  13.480  13.772   9.230
  156PROX   H1321785  13.638  13.807   9.144
  156PROX    C221786  13.465  13.948   9.108
  156PROX   H2121787  13.507  13.974   9.008
  156PROX    C321788  13.509  14.052   9.209
  156PROX   H3121789  13.616  14.080   9.214
  156PROX   H3221790  13.446  14.143   9.195
  156PROX   H3321791  13.480  14.004   9.305
  157PROX    O121792  13.324  13.943   9.098
  157PROX    C121793  13.270  14.023   8.995
  157PROX   H1121794  13.316  14.124   8.990
  157PROX   H1321795  13.266  13.977   8.894
  157PROX    C221796  13.123  14.048   9.026
  157PROX   H2121797  13.066  13.956   9.052
  157PROX    C321798  13.040  14.107   8.910
  157PROX   H3121799  13.024  14.031   8.830
  157PROX   H3221800  12.945  14.160   8.934
  157PROX   H3321801  13.093  14.189   8.858
  158PROX    O121802  13.117  14.142   9.130
  158PROX    C121803  13.055  14.095   9.248
  158PROX   H1121804  12.982  14.015   9.225
  158PROX   H1321805  13.136  14.059   9.315
  158PROX    C221806  12.999  14.210   9.332
  158PROX   H2121807  13.068  14.296   9.334
  158PROX    C321808  12.958  14.167   9.474
  158PROX   H3121809  13.048  14.126   9.524
  158PROX   H3221810  12.910  14.253   9.525
  158PROX   H3321811  12.872  14.096   9.479
  159PROX    O121812  12.871  14.255   9.273
  159PROX    C121813  12.890  14.345   9.163
  159PROX   H1121814  12.978  14.326   9.097
  159PROX   H1321815  12.798  14.336   9.101
  159PROX    C221816  12.891  14.493   9.199
  159PROX   H2121817  12.810  14.518   9.271
  159PROX    C321818  12.872  14.580   9.074
  159PROX   H3121819  12.968  14.584   9.018
  159PROX   H3221820  12.792  14.541   9.008
  159PROX   H3321821  12.837  14.682   9.103
  160PROX    O121822  13.003  14.518   9.283
  160PROX    C121823  13.014  14.649   9.343
  160PROX   H1121824  12.996  14.723   9.263
  160PROX   H1321825  12.931  14.662   9.416
  160PROX    C221826  13.141  14.677   9.426
  160PROX   H2121827  13.151  14.583   9.486
  160PROX    C321828  13.130  14.797   9.520
  160PROX   H3121829  13.125  14.894   9.466
  160PROX   H3221830  13.047  14.779   9.591
  160PROX   H3321831  13.213  14.807   9.593
  161PROX    O121832  13.251  14.686   9.339
  161PROX    C121833  13.373  14.643   9.389
  161PROX   H1121834  13.454  14.716   9.365
  161PROX   H1321835  13.384  14.624   9.498
  161PROX    C221836  13.434  14.520   9.315
  161PROX   H2121837  13.441  14.550   9.208
  161PROX    C321838  13.351  14.392   9.317
  161PROX   H3121839  13.242  14.409   9.306
  161PROX   H3221840  13.371  14.328   9.228
  161PROX   H3321841  13.371  14.329   9.407
  162PROX    O121842  13.563  14.486   9.377
  162PROX    C121843  13.659  14.459   9.284
  162PROX   H1121844  13.710  14.365   9.312
  162PROX   H1321845  13.611  14.455   9.184
  162PROX    C221846  13.773  14.570   9.274
  162PROX   H2121847  13.734  14.667   9.237
  162PROX    C321848  13.889  14.509   9.183
  162PROX   H3121849  13.963  14.589   9.161
  162PROX   H3221850  13.930  14.419   9.234
  162PROX   H3321851  13.836  14.469   9.095
  163PROX    O121852  13.843  14.598   9.401
  163PROX    C121853  13.771  14.680   9.491
  163PROX   H1121854  13.664  14.692   9.462
  163PROX   H1321855  13.781  14.627   9.588
  163PROX    C221856  13.833  14.819   9.505
  163PROX   H2121857  13.943  14.802   9.506
  163PROX    C321858  13.797  14.897   9.634
  163PROX   H3121859  13.687  14.884   9.646
  163PROX   H3221860  13.841  14.861   9.729
  163PROX   H3321861  13.812  15.007   9.630
  164PROX    O121862  13.801  14.890   9.385
  164PROX    C121863  13.881  15.008   9.365
  164PROX   H1121864  13.803  15.076   9.324
  164PROX   H1321865  13.918  15.054   9.459
  164PROX    C221866  13.995  14.985   9.257
  164PROX   H2121867  14.032  15.081   9.215
  164PROX    C321868  13.931  14.902   9.141
  164PROX   H3121869  14.010  14.870   9.070
  164PROX   H3221870  13.873  14.815   9.180
  164PROX   H3321871  13.854  14.963   9.090
  165PROX    O121872  14.108  14.920   9.314
  165PROX    C121873  14.227  14.927   9.234
  165PROX   H1121874  14.199  14.909   9.128
  165PROX   H1321875  14.272  15.028   9.238
  165PROX    C221876  14.330  14.834   9.295
  165PROX   H2121877  14.281  14.735   9.300
  165PROX    C321878  14.384  14.896   9.433
  165PROX   H3121879  14.442  14.817   9.486
  165PROX   H3221880  14.446  14.986   9.411
  165PROX   H3321881  14.297  14.918   9.498
  166ETHO    O121882  14.438  14.820   9.202
  166ETHO    C121883  14.525  14.705   9.246
  166ETHO   H1121884  14.468  14.609   9.246
  166ETHO   H1321885  14.578  14.713   9.343
  166ETHO    C221886  14.627  14.674   9.138
  166ETHO   H2121887  14.690  14.764   9.122
  166ETHO   H2321888  14.585  14.658   9.036
  167ETHO    O121889  14.703  14.551   9.154
  167ETHO    C121890  14.820  14.552   9.067
  167ETHO   H1121891  14.787  14.558   8.961
  167ETHO   H1321892  14.884  14.641   9.086
  167ETHO    C221893  14.910  14.417   9.080
  167ETHO   H2121894  14.944  14.412   9.186
  167ETHO   H2321895  14.999  14.429   9.015
  168ETHO    O121896  14.869  14.291   9.028
  168ETHO    C121897  14.744  14.251   9.082
  168ETHO   H1121898  14.668  14.323   9.045
  168ETHO   H1321899  14.737  14.277   9.190
  168ETHO    C221900  14.714  14.103   9.051
  168ETHO   H2121901  14.647  14.062   9.130
  168ETHO   H2321902  14.805  14.041   9.064
  169ETHO    O121903  14.639  14.085   8.931
  169ETHO    C121904  14.624  13.949   8.890
  169ETHO   H1121905  14.722  13.909   8.856
  169ETHO   H1321906  14.588  13.877   8.967
  169ETHO    C221907  14.520  13.947   8.779
  169ETHO   H2121908  14.429  13.989   8.826
  169ETHO   H2321909  14.494  13.847   8.737
  170ETHO    O121910  14.556  14.030   8.673
  170ETHO    C121911  14.476  14.017   8.560
  170ETHO   H1121912  14.370  14.011   8.592
  170ETHO   H1321913  14.511  13.931   8.500
  170ETHO    C221914  14.491  14.135   8.461
  170ETHO   H2121915  14.449  14.095   8.366
  170ETHO   H2321916  14.597  14.153   8.433
  171ETHO    O121917  14.418  14.255   8.495
  171ETHO    C121918  14.452  14.362   8.410
  171ETHO   H1121919  14.562  14.365   8.391
  171ETHO   H1321920  14.392  14.341   8.319
  171ETHO    C221921  14.389  14.493   8.471
  171ETHO   H2121922  14.459  14.575   8.448
  171ETHO   H2321923  14.392  14.466   8.579
  172ETHO    O121924  14.256  14.516   8.427
  172ETHO    C121925  14.197  14.625   8.497
  172ETHO   H1121926  14.258  14.717   8.485
  172ETHO   H1321927  14.207  14.595   8.603
  172ETHO    C221928  14.059  14.645   8.438
  172ETHO   H2121929  14.007  14.719   8.502
  172ETHO   H2321930  14.015  14.543   8.445
  173ETHO    O121931  14.041  14.691   8.303
  173ETHO    C121932  14.055  14.834   8.283
  173ETHO   H1121933  13.985  14.861   8.202
  173ETHO   H1321934  14.025  14.890   8.374
  173ETHO    C221935  14.205  14.870   8.239
  173ETHO   H2121936  14.204  14.977   8.210
  173ETHO   H2321937  14.278  14.853   8.321
  174ETHO    O121938  14.244  14.794   8.127
  174ETHO    C121939  14.366  14.727   8.148
  174ETHO   H1121940  14.455  14.794   8.147
  174ETHO   H1321941  14.357  14.674   8.245
  174ETHO    C221942  14.388  14.631   8.032
  174ETHO   H2121943  14.311  14.551   8.029
  174ETHO   H2321944  14.482  14.574   8.044
  175ETHO    O121945  14.395  14.697   7.909
  175ETHO    C121946  14.421  14.612   7.799
  175ETHO   H1121947  14.502  14.543   7.830
  175ETHO   H1321948  14.330  14.553   7.772
  175ETHO    C221949  14.476  14.686   7.676
  175ETHO   H2121950  14.513  14.608   7.606
  175ETHO   H2321951  14.565  14.740   7.713
  176ETHO    O121952  14.382  14.767   7.616
  176ETHO    C121953  14.449  14.836   7.515
  176ETHO   H1121954  14.518  14.909   7.562
  176ETHO   H1321955  14.505  14.763   7.454
  176ETHO    C221956  14.350  14.919   7.439
  176ETHO   H2121957  14.290  14.974   7.515
  176ETHO   H2321958  14.296  14.843   7.379
  177ETHO    O121959  14.409  15.022   7.370
  177ETHO    C121960  14.315  15.071   7.274
  177ETHO   H1121961  14.221  15.113   7.315
  177ETHO   H1321962  14.290  14.996   7.196
  177ETHO    C221963  14.383  15.188   7.205
  177ETHO   H2121964  14.302  15.235   7.145
  177ETHO   H2321965  14.457  15.144   7.135
  178ETHO    O121966  14.443  15.276   7.299
  178ETHO    C121967  14.498  15.392   7.225
  178ETHO   H1121968  14.553  15.355   7.136
  178ETHO   H1321969  14.414  15.457   7.191
  178ETHO    C221970  14.606  15.470   7.302
  178ETHO   H2121971  14.588  15.453   7.410
  178ETHO   H2321972  14.592  15.578   7.279
  179ETHO    O121973  14.739  15.427   7.258
  179ETHO    C121974  14.834  15.468   7.358
  179ETHO   H1121975  14.865  15.387   7.427
  179ETHO   H1321976  14.791  15.547   7.422
  179ETHO    C221977  14.961  15.540   7.309
  179ETHO   H2121978  14.931  15.596   7.218
  179ETHO   H2321979  15.042  15.469   7.285
  180ETHO    O121980  15.008  15.621   7.415
  180ETHO    C121981  15.099  15.721   7.369
  180ETHO   H1121982  15.199  15.674   7.357
  180ETHO   H1321983  15.068  15.771   7.275
  180ETHO    C221984  15.110  15.829   7.476
  180ETHO   H2121985  15.010  15.874   7.494
  180ETHO   H2321986  15.164  15.918   7.439
  181ETHO    O121987  15.171  15.775   7.594
  181ETHO    C121988  15.193  15.879   7.688
  181ETHO   H1121989  15.105  15.946   7.695
  181ETHO   H1321990  15.281  15.938   7.653
  181ETHO    C221991  15.219  15.820   7.832
  181ETHO   H2121992  15.246  15.913   7.887
  181ETHO   H2321993  15.308  15.754   7.828
  182ETHO    O121994  15.117  15.756   7.902
  182ETHO    C121995  15.156  15.741   8.043
  182ETHO   H1121996  15.252  15.684   8.050
  182ETHO   H1321997  15.165  15.837   8.099
  182ETHO    C221998  15.050  15.664   8.115
  182ETHO   H2121999  15.087  15.635   8.216
  182ETHO   H2322000  15.016  15.578   8.054
  183ETHO    O122001  14.946  15.758   8.150
  183ETHO    C122002  14.838  15.705   8.222
  183ETHO   H1122003  14.865  15.712   8.330
  183ETHO   H1322004  14.827  15.597   8.196
  183ETHO    C222005  14.701  15.780   8.204
  183ETHO   H2122006  14.722  15.889   8.213
  183ETHO   H2322007  14.629  15.732   8.274
  184ETHO    O122008  14.643  15.769   8.070
  184ETHO    C122009  14.550  15.873   8.053
  184ETHO   H1122010  14.484  15.874   8.142
  184ETHO   H1322011  14.603  15.967   8.026
  184ETHO    C222012  14.459  15.840   7.930
  184ETHO   H2122013  14.373  15.910   7.926
  184ETHO   H2322014  14.427  15.736   7.951
  185ETHO    O122015  14.523  15.856   7.805
  185ETHO    C122016  14.555  15.732   7.747
  185ETHO   H1122017  14.594  15.663   7.825
  185ETHO   H1322018  14.462  15.684   7.711
  185ETHO    C222019  14.656  15.758   7.635
  185ETHO   H2122020  14.700  15.663   7.596
  185ETHO   H2322021  14.735  15.820   7.684
  186ETHO    O122022  14.598  15.813   7.519
  186ETHO    C122023  14.695  15.871   7.431
  186ETHO   H1122024  14.750  15.953   7.481
  186ETHO   H1322025  14.770  15.793   7.406
  186ETHO    C222026  14.645  15.929   7.299
  186ETHO   H2122027  14.595  15.856   7.232
  186ETHO   H2322028  14.729  15.973   7.242
  187ETHO    O122029  14.560  16.036   7.332
  187ETHO    C122030  14.507  16.098   7.217
  187ETHO   H1122031  14.580  16.124   7.138
  187ETHO   H1322032  14.433  16.028   7.171
  187ETHO    C222033  14.429  16.229   7.247
  187ETHO   H2122034  14.324  16.201   7.270
  187ETHO   H2322035  14.411  16.295   7.159
  188ETHO    O122036  14.493  16.304   7.353
  188ETHO    C122037  14.414  16.396   7.425
  188ETHO   H1122038  14.472  16.410   7.518
  188ETHO   H1322039  14.320  16.348   7.461
  188ETHO    C222040  14.388  16.541   7.369
  188ETHO   H2122041  14.333  16.595   7.449
  188ETHO   H2322042  14.316  16.525   7.286
  189ETHO    O122043  14.508  16.607   7.330
  189ETHO    C122044  14.494  16.658   7.192
  189ETHO   H1122045  14.441  16.582   7.131
  189ETHO   H1322046  14.428  16.748   7.183
  189ETHO    C222047  14.627  16.699   7.132
  189ETHO   H2122048  14.688  16.765   7.197
  189ETHO   H2322049  14.600  16.753   7.039
  190ETHO    O122050  14.710  16.593   7.094
  190ETHO    C122051  14.844  16.638   7.069
  190ETHO   H1122052  14.901  16.546   7.044
  190ETHO   H1322053  14.878  16.683   7.165
  190ETHO    C222054  14.851  16.744   6.956
  190ETHO   H2122055  14.771  16.723   6.882
  190ETHO   H2322056  14.952  16.743   6.911
  191ETHO    O122057  14.822  16.877   6.995
  191ETHO    C122058  14.860  16.961   6.890
  191ETHO   H1122059  14.969  16.951   6.874
  191ETHO   H1322060  14.816  16.933   6.792
  191ETHO    C222061  14.832  17.106   6.929
  191ETHO   H2122062  14.894  17.127   7.018
  191ETHO   H2322063  14.725  17.122   6.956
  192ETHO    O122064  14.884  17.175   6.818
  192ETHO    C122065  14.782  17.229   6.735
  192ETHO   H1122066  14.693  17.256   6.796
  192ETHO   H1322067  14.770  17.159   6.650
  192ETHO    C222068  14.827  17.361   6.667
  192ETHO   H2122069  14.843  17.439   6.744
  192ETHO   H2322070  14.738  17.394   6.609
  193ETHO    O122071  14.947  17.359   6.582
  193ETHO    C122072  14.936  17.443   6.465
  193ETHO   H1122073  15.036  17.434   6.418
  193ETHO   H1322074  14.859  17.399   6.398
  193ETHO    C222075  14.920  17.592   6.497
  193ETHO   H2122076  14.943  17.654   6.407
  193ETHO   H2322077  14.995  17.619   6.574
  194ETHO    O122078  14.793  17.639   6.531
  194ETHO    C122079  14.697  17.645   6.424
  194ETHO   H1122080  14.693  17.544   6.377
  194ETHO   H1322081  14.748  17.709   6.349
  194ETHO    C222082  14.566  17.718   6.452
  194ETHO   H2122083  14.511  17.725   6.356
  194ETHO   H2322084  14.595  17.820   6.483
  195ETHO    O122085  14.483  17.659   6.555
  195ETHO    C122086  14.535  17.687   6.685
  195ETHO   H1122087  14.634  17.638   6.698
  195ETHO   H1322088  14.544  17.797   6.700
  195ETHO    C222089  14.441  17.632   6.793
  195ETHO   H2122090  14.339  17.654   6.756
  195ETHO   H2322091  14.457  17.703   6.877
  196ETHO    O122092  14.455  17.497   6.824
  196ETHO    C122093  14.349  17.449   6.904
  196ETHO   H1122094  14.319  17.516   6.987
  196ETHO   H1322095  14.272  17.430   6.826
  196ETHO    C222096  14.384  17.302   6.956
  196ETHO   H2122097  14.294  17.259   7.006
  196ETHO   H2322098  14.470  17.301   7.025
  197ETHO    O122099  14.408  17.216   6.845
  197ETHO    C122100  14.439  17.091   6.903
  197ETHO   H1122101  14.527  17.111   6.969
  197ETHO   H1322102  14.361  17.038   6.960
  197ETHO    C222103  14.488  17.000   6.794
  197ETHO   H2122104  14.535  16.912   6.841
  197ETHO   H2322105  14.568  17.058   6.742
  198ETHO    O122106  14.384  16.956   6.713
  198ETHO    C122107  14.422  16.836   6.646
  198ETHO   H1122108  14.423  16.852   6.536
  198ETHO   H1322109  14.511  16.776   6.675
  198ETHO    C222110  14.297  16.748   6.681
  198ETHO   H2122111  14.209  16.800   6.637
  198ETHO   H2322112  14.286  16.744   6.792
  199ETHO    O122113  14.300  16.610   6.628
  199ETHO    C122114  14.180  16.535   6.677
  199ETHO   H1122115  14.103  16.598   6.726
  199ETHO   H1322116  14.207  16.454   6.748
  199ETHO    C222117  14.117  16.465   6.546
  199ETHO   H2122118  14.115  16.542   6.465
  199ETHO   H2322119  14.013  16.436   6.570
  200ETHO    O122120  14.194  16.352   6.505
  200ETHO    C122121  14.156  16.307   6.375
  200ETHO   H1122122  14.050  16.282   6.391
  200ETHO   H1322123  14.156  16.390   6.301
  200ETHO    C222124  14.227  16.190   6.313
  200ETHO   H2122125  14.332  16.226   6.312
  200ETHO   H2322126  14.190  16.179   6.209
  201ETHO    O122127  14.243  16.067   6.391
  201ETHO    C122128  14.139  15.978   6.375
  201ETHO   H1122129  14.101  15.966   6.271
  201ETHO   H1322130  14.056  16.010   6.441
  201ETHO    C222131  14.175  15.837   6.426
  201ETHO   H2122132  14.192  15.848   6.536
  201ETHO   H2322133  14.270  15.792   6.389
  202ETHO    O122134  14.060  15.758   6.407
  202ETHO    C122135  14.056  15.640   6.490
  202ETHO   H1122136  14.148  15.579   6.480
  202ETHO   H1322137  14.043  15.673   6.595
  202ETHO    C222138  13.931  15.561   6.438
  202ETHO   H2122139  13.929  15.545   6.329
  202ETHO   H2322140  13.842  15.623   6.459
  203ETHO    O122141  13.924  15.432   6.502
  203ETHO    C122142  13.902  15.323   6.412
  203ETHO   H1122143  13.976  15.332   6.329
  203ETHO   H1322144  13.803  15.343   6.367
  203ETHO    C222145  13.905  15.181   6.469
  203ETHO   H2122146  13.892  15.107   6.387
  203ETHO   H2322147  13.823  15.167   6.542
  204ETHO    O122148  14.026  15.153   6.531
  204ETHO    C122149  14.025  15.019   6.582
  204ETHO   H1122150  13.960  14.950   6.524
  204ETHO   H1322151  14.128  14.977   6.577
  204ETHO    C222152  13.995  15.009   6.731
  204ETHO   H2122153  13.990  14.899   6.746
  204ETHO   H2322154  13.900  15.066   6.740
  205ETHO    O122155  14.106  15.054   6.806
  205ETHO    C122156  14.082  15.037   6.946
  205ETHO   H1122157  14.177  15.032   7.003
  205ETHO   H1322158  14.051  14.930   6.936
  205ETHO    C222159  13.975  15.127   7.016
  205ETHO   H2122160  13.954  15.073   7.111
  205ETHO   H2322161  13.887  15.151   6.953
  206ETHO    O122162  14.044  15.250   7.030
  206ETHO    C122163  13.973  15.348   7.109
  206ETHO   H1122164  13.864  15.345   7.089
  206ETHO   H1322165  13.992  15.339   7.218
  206ETHO    C222166  14.006  15.497   7.072
  206ETHO   H2122167  14.015  15.512   6.962
  206ETHO   H2322168  13.912  15.551   7.097
  207ETHO    O122169  14.127  15.534   7.136
  207ETHO    C122170  14.149  15.679   7.120
  207ETHO   H1122171  14.051  15.731   7.114
  207ETHO   H1322172  14.180  15.694   7.014
  207ETHO    C222173  14.242  15.742   7.229
  207ETHO   H2122174  14.276  15.841   7.190
  207ETHO   H2322175  14.340  15.691   7.236
  208ETHO    O122176  14.207  15.775   7.365
  208ETHO    C122177  14.312  15.815   7.446
  208ETHO   H1122178  14.380  15.734   7.480
  208ETHO   H1322179  14.379  15.881   7.387
  208ETHO    C222180  14.257  15.861   7.576
  208ETHO   H2122181  14.334  15.874   7.654
  208ETHO   H2322182  14.171  15.796   7.602
  209ETHO    O122183  14.211  15.999   7.558
  209ETHO    C122184  14.138  16.048   7.671
  209ETHO   H1122185  14.203  16.048   7.761
  209ETHO   H1322186  14.048  15.988   7.695
  209ETHO    C222187  14.100  16.194   7.654
  209ETHO   H2122188  14.193  16.253   7.666
  209ETHO   H2322189  14.024  16.215   7.733
  210ETHO    O122190  14.042  16.222   7.529
  210ETHO    C122191  13.996  16.356   7.528
  210ETHO   H1122192  13.955  16.396   7.623
  210ETHO   H1322193  14.084  16.424   7.524
  210ETHO    C222194  13.889  16.369   7.417
  210ETHO   H2122195  13.836  16.464   7.440
  210ETHO   H2322196  13.820  16.284   7.437
  211ETHO    O122197  13.925  16.369   7.278
  211ETHO    C122198  13.808  16.402   7.198
  211ETHO   H1122199  13.717  16.343   7.220
  211ETHO   H1322200  13.774  16.502   7.231
  211ETHO    C222201  13.836  16.409   7.047
  211ETHO   H2122202  13.930  16.468   7.038
  211ETHO   H2322203  13.760  16.472   6.995
  212ETHO    O122204  13.847  16.282   6.988
  212ETHO    C122205  13.880  16.284   6.853
  212ETHO   H1122206  13.798  16.322   6.788
  212ETHO   H1322207  13.971  16.345   6.839
  212ETHO    C222208  13.906  16.142   6.807
  212ETHO   H2122209  13.991  16.111   6.871
  212ETHO   H2322210  13.944  16.146   6.702
  213ETHO    O122211  13.790  16.058   6.816
  213ETHO    C122212  13.794  15.936   6.740
  213ETHO   H1122213  13.893  15.886   6.734
  213ETHO   H1322214  13.734  15.868   6.804
  213ETHO    C222215  13.723  15.956   6.610
  213ETHO   H2122216  13.636  16.024   6.619
  213ETHO   H2322217  13.675  15.864   6.570
  214ETHO    O122218  13.823  15.999   6.510
  214ETHO    C122219  13.765  16.061   6.395
  214ETHO   H1122220  13.823  16.154   6.378
  214ETHO   H1322221  13.658  16.087   6.405
  214ETHO    C222222  13.766  15.971   6.269
  214ETHO   H2122223  13.663  15.964   6.229
  214ETHO   H2322224  13.808  15.873   6.299
  215ETHO    O122225  13.846  16.024   6.161
  215ETHO    C122226  13.840  15.949   6.043
  215ETHO   H1122227  13.737  15.920   6.013
  215ETHO   H1322228  13.867  16.027   5.968
  215ETHO    C222229  13.915  15.811   6.040
  215ETHO   H2122230  13.877  15.762   5.947
  215ETHO   H2322231  13.905  15.748   6.131
  216ETHO    O122232  14.052  15.835   6.032
  216ETHO    C122233  14.123  15.716   6.005
  216ETHO   H1122234  14.078  15.656   5.923
  216ETHO   H1322235  14.114  15.654   6.097
  216ETHO    C222236  14.275  15.730   5.986
  216ETHO   H2122237  14.292  15.788   5.893
  216ETHO   H2322238  14.333  15.636   5.976
  217ETHO    O122239  14.331  15.806   6.090
  217ETHO    C122240  14.472  15.796   6.094
  217ETHO   H1122241  14.507  15.837   6.191
  217ETHO   H1322242  14.501  15.689   6.098
  217ETHO    C222243  14.544  15.865   5.982
  217ETHO   H2122244  14.650  15.876   6.014
  217ETHO   H2322245  14.511  15.968   5.957
  218ETHO    O122246  14.521  15.792   5.858
  218ETHO    C122247  14.597  15.847   5.751
  218ETHO   H1122248  14.602  15.957   5.766
  218ETHO   H1322249  14.542  15.834   5.656
  218ETHO    C222250  14.742  15.808   5.727
  218ETHO   H2122251  14.799  15.810   5.822
  218ETHO   H2322252  14.790  15.874   5.651
  219ETHO    O122253  14.752  15.675   5.692
  219ETHO    C122254  14.719  15.656   5.554
  219ETHO   H1122255  14.629  15.711   5.518
  219ETHO   H1322256  14.799  15.700   5.492
  219ETHO    C222257  14.726  15.507   5.517
  219ETHO   H2122258  14.830  15.473   5.539
  219ETHO   H2322259  14.708  15.485   5.410
  220ETHO    O122260  14.634  15.429   5.594
  220ETHO    C122261  14.596  15.298   5.557
  220ETHO   H1122262  14.596  15.276   5.448
  220ETHO   H1322263  14.488  15.289   5.584
  220ETHO    C222264  14.673  15.191   5.620
  220ETHO   H2122265  14.777  15.200   5.581
  220ETHO   H2322266  14.631  15.093   5.589
  221ETHO    O122267  14.678  15.191   5.751
  221ETHO    C122268  14.766  15.083   5.795
  221ETHO   H1122269  14.711  14.989   5.771
  221ETHO   H1322270  14.857  15.096   5.731
  221ETHO    C222271  14.788  15.105   5.947
  221ETHO   H2122272  14.701  15.067   6.004
  221ETHO   H2322273  14.810  15.213   5.958
  222ETHO    O122274  14.910  15.041   5.974
  222ETHO    C122275  14.952  15.064   6.100
  222ETHO   H1122276  14.987  15.166   6.126
  222ETHO   H1322277  14.873  15.038   6.173
  222ETHO    C222278  15.070  14.970   6.125
  222ETHO   H2122279  15.053  14.874   6.071
  222ETHO   H2322280  15.084  14.955   6.234
  223ETHO    O122281  15.190  15.027   6.067
  223ETHO    C122282  15.297  14.937   6.073
  223ETHO   H1122283  15.310  14.908   6.180
  223ETHO   H1322284  15.281  14.847   6.010
  223ETHO    C222285  15.426  14.994   6.023
  223ETHO   H2122286  15.504  14.917   6.042
  223ETHO   H2322287  15.455  15.093   6.064
  224ETHO    O122288  15.423  15.012   5.886
  224ETHO    C122289  15.550  15.034   5.835
  224ETHO   H1122290  15.586  15.128   5.884
  224ETHO   H1322291  15.621  14.958   5.874
  224ETHO    C222292  15.572  15.069   5.684
  224ETHO   H2122293  15.530  14.991   5.617
  224ETHO   H2322294  15.681  15.064   5.665
  225ETHO    O122295  15.510  15.189   5.649
  225ETHO    C122296  15.488  15.200   5.503
  225ETHO   H1122297  15.439  15.106   5.469
  225ETHO   H1322298  15.586  15.206   5.452
  225ETHO    C222299  15.388  15.312   5.463
  225ETHO   H2122300  15.309  15.300   5.540
  225ETHO   H2322301  15.351  15.290   5.361
  226ETHO    O122302  15.440  15.443   5.462
  226ETHO    C122303  15.520  15.464   5.349
  226ETHO   H1122304  15.609  15.398   5.338
  226ETHO   H1322305  15.461  15.441   5.258
  226ETHO    C222306  15.549  15.616   5.329
  226ETHO   H2122307  15.452  15.666   5.307
  226ETHO   H2322308  15.611  15.637   5.240
  227ETHO    O122309  15.613  15.652   5.450
  227ETHO    C122310  15.573  15.780   5.493
  227ETHO   H1122311  15.571  15.779   5.604
  227ETHO   H1322312  15.465  15.801   5.474
  227ETHO    C222313  15.667  15.894   5.437
  227ETHO   H2122314  15.775  15.877   5.455
  227ETHO   H2322315  15.636  15.986   5.492
  228ETHO    O122316  15.639  15.905   5.297
  228ETHO    C122317  15.719  16.005   5.231
  228ETHO   H1122318  15.664  16.040   5.141
  228ETHO   H1322319  15.739  16.088   5.302
  228ETHO    C222320  15.853  15.953   5.174
  228ETHO   H2122321  15.901  15.901   5.260
  228ETHO   H2322322  15.918  16.038   5.143
  229ETHO    O122323  15.832  15.863   5.067
  229ETHO    C122324  15.961  15.805   5.031
  229ETHO   H1122325  15.938  15.737   4.945
  229ETHO   H1322326  15.990  15.731   5.108
  229ETHO    C222327  16.086  15.891   4.988
  229ETHO   H2122328  16.062  15.959   4.902
  229ETHO   H2322329  16.170  15.829   4.951
  230ETHO    O122330  16.132  15.961   5.104
  230ETHO    C122331  16.181  16.088   5.072
  230ETHO   H1122332  16.272  16.073   5.010
  230ETHO   H1322333  16.102  16.144   5.017
  230ETHO    C222334  16.221  16.144   5.205
  230ETHO   H2122335  16.292  16.094   5.273
  230ETHO   H2322336  16.125  16.144   5.260
  231ETHO    O122337  16.273  16.274   5.203
  231ETHO    C122338  16.413  16.273   5.213
  231ETHO   H1122339  16.449  16.204   5.134
  231ETHO   H1322340  16.446  16.236   5.312
  231ETHO    C222341  16.485  16.412   5.209
  231ETHO   H2122342  16.594  16.408   5.227
  231ETHO   H2322343  16.437  16.483   5.279
  232ETHO    O122344  16.459  16.475   5.085
  232ETHO    C122345  16.533  16.591   5.059
  232ETHO   H1122346  16.468  16.668   5.107
  232ETHO   H1322347  16.633  16.579   5.106
  232ETHO    C222348  16.532  16.648   4.912
  232ETHO   H2122349  16.540  16.558   4.848
  232ETHO   H2322350  16.627  16.704   4.897
  233ETHO    O122351  16.417  16.730   4.890
  233ETHO    C122352  16.300  16.652   4.860
  233ETHO   H1122353  16.295  16.568   4.933
  233ETHO   H1322354  16.222  16.724   4.893
  233ETHO    C222355  16.276  16.605   4.710
  233ETHO   H2122356  16.286  16.696   4.648
  233ETHO   H2322357  16.171  16.569   4.707
  234ETHO    O122358  16.356  16.499   4.671
  234ETHO    C122359  16.373  16.490   4.533
  234ETHO   H1122360  16.275  16.511   4.484
  234ETHO   H1322361  16.450  16.560   4.495
  234ETHO    C222362  16.415  16.350   4.485
  234ETHO   H2122363  16.518  16.320   4.513
  234ETHO   H2322364  16.409  16.342   4.374
  235ETHO    O122365  16.331  16.245   4.532
  235ETHO    C122366  16.332  16.135   4.438
  235ETHO   H1122367  16.272  16.186   4.360
  235ETHO   H1322368  16.434  16.124   4.394
  235ETHO    C222369  16.266  16.000   4.491
  235ETHO   H2122370  16.198  15.962   4.412
  235ETHO   H2322371  16.196  16.020   4.575
  236ETHO    O122372  16.358  15.893   4.512
  236ETHO    C122373  16.301  15.784   4.578
  236ETHO   H1122374  16.238  15.733   4.502
  236ETHO   H1322375  16.233  15.823   4.657
  236ETHO    C222376  16.413  15.687   4.635
  236ETHO   H2122377  16.368  15.628   4.717
  236ETHO   H2322378  16.485  15.762   4.675
  237ETHO    O122379  16.477  15.608   4.539
  237ETHO    C122380  16.405  15.488   4.515
  237ETHO   H1122381  16.367  15.444   4.609
  237ETHO   H1322382  16.321  15.514   4.447
  237ETHO    C222383  16.490  15.399   4.432
  237ETHO   H2122384  16.527  15.468   4.352
  237ETHO   H2322385  16.429  15.316   4.392
  238ETHO    O122386  16.599  15.345   4.506
  238ETHO    C122387  16.696  15.281   4.426
  238ETHO   H1122388  16.741  15.346   4.348
  238ETHO   H1322389  16.644  15.199   4.372
  238ETHO    C222390  16.803  15.219   4.515
  238ETHO   H2122391  16.864  15.310   4.536
  238ETHO   H2322392  16.863  15.151   4.451
  239ETHO    O122393  16.771  15.141   4.630
  239ETHO    C122394  16.887  15.102   4.701
  239ETHO   H1122395  16.866  15.016   4.768
  239ETHO   H1322396  16.962  15.069   4.626
  239ETHO    C222397  16.943  15.211   4.785
  239ETHO   H2122398  17.042  15.177   4.823
  239ETHO   H2322399  16.952  15.309   4.734
  240ETHO    O122400  16.854  15.226   4.902
  240ETHO    C122401  16.925  15.293   5.015
  240ETHO   H1122402  16.938  15.399   4.985
  240ETHO   H1322403  17.027  15.249   5.026
  240ETHO    C222404  16.838  15.295   5.140
  240ETHO   H2122405  16.736  15.325   5.108
  240ETHO   H2322406  16.885  15.368   5.210
  241ETHO    O122407  16.843  15.167   5.199
  241ETHO    C122408  16.767  15.177   5.322
  241ETHO   H1122409  16.816  15.247   5.392
  241ETHO   H1322410  16.663  15.204   5.295
  241ETHO    C222411  16.774  15.037   5.391
  241ETHO   H2122412  16.725  14.949   5.345
  241ETHO   H2322413  16.722  15.043   5.489
  242ETHO    O122414  16.907  14.992   5.414
  242ETHO    C122415  16.918  14.918   5.535
  242ETHO   H1122416  16.838  14.841   5.543
  242ETHO   H1322417  16.900  14.982   5.623
  242ETHO    C222418  17.046  14.841   5.550
  242ETHO   H2122419  17.058  14.808   5.656
  242ETHO   H2322420  17.134  14.905   5.529
  243ETHO    O122421  17.049  14.721   5.477
  243ETHO    C122422  17.172  14.703   5.417
  243ETHO   H1122423  17.208  14.786   5.352
  243ETHO   H1322424  17.243  14.684   5.501
  243ETHO    C222425  17.176  14.579   5.321
  243ETHO   H2122426  17.106  14.618   5.243
  243ETHO   H2322427  17.143  14.493   5.382
  244ETHO    O122428  17.306  14.551   5.268
  244ETHO    C122429  17.305  14.431   5.201
  244ETHO   H1122430  17.228  14.426   5.121
  244ETHO   H1322431  17.279  14.346   5.268
  244ETHO    C222432  17.438  14.390   5.125
  244ETHO   H2122433  17.435  14.282   5.099
  244ETHO   H2322434  17.522  14.402   5.196
  245ETHO    O122435  17.462  14.486   5.017
  245ETHO    C122436  17.433  14.438   4.884
  245ETHO   H1122437  17.433  14.328   4.865
  245ETHO   H1322438  17.333  14.472   4.849
  245ETHO    C222439  17.532  14.507   4.786
  245ETHO   H2122440  17.510  14.472   4.683
  245ETHO   H2322441  17.632  14.463   4.808
  246ETHO    O122442  17.534  14.646   4.783
  246ETHO    C122443  17.585  14.703   4.661
  246ETHO   H1122444  17.531  14.649   4.581
  246ETHO   H1322445  17.689  14.668   4.641
  246ETHO    C222446  17.568  14.854   4.650
  246ETHO   H2122447  17.474  14.891   4.696
  246ETHO   H2322448  17.554  14.878   4.542
  247ETHO    O122449  17.681  14.928   4.697
  247ETHO    C122450  17.691  14.913   4.841
  247ETHO   H1122451  17.608  14.968   4.890
  247ETHO   H1322452  17.677  14.806   4.869
  247ETHO    C222453  17.827  14.964   4.882
  247ETHO   H2122454  17.858  14.918   4.977
  247ETHO   H2322455  17.890  14.939   4.793
  248ETHO    O122456  17.814  15.107   4.886
  248ETHO    C122457  17.930  15.154   4.951
  248ETHO   H1122458  17.957  15.094   5.041
  248ETHO   H1322459  18.009  15.129   4.876
  248ETHO    C222460  17.930  15.304   4.965
  248ETHO   H2122461  18.017  15.338   5.026
  248ETHO   H2322462  17.837  15.325   5.021
  249ETHO    O122463  17.918  15.382   4.849
  249ETHO    C122464  17.890  15.525   4.881
  249ETHO   H1122465  17.948  15.565   4.967
  249ETHO   H1322466  17.915  15.586   4.791
  249ETHO    C222467  17.738  15.558   4.899
  249ETHO   H2122468  17.719  15.662   4.933
  249ETHO   H2322469  17.695  15.499   4.982
  250ETHO    O122470  17.665  15.526   4.783
  250ETHO    C122471  17.535  15.565   4.797
  250ETHO   H1122472  17.475  15.480   4.835
  250ETHO   H1322473  17.520  15.661   4.852
  250ETHO    C222474  17.483  15.612   4.661
  250ETHO   H2122475  17.550  15.692   4.622
  250ETHO   H2322476  17.380  15.649   4.677
  251ETHO    O122477  17.490  15.501   4.568
  251ETHO    C122478  17.480  15.546   4.435
  251ETHO   H1122479  17.478  15.459   4.366
  251ETHO   H1322480  17.564  15.614   4.410
  251ETHO    C222481  17.357  15.623   4.396
  251ETHO   H2122482  17.365  15.672   4.297
  251ETHO   H2322483  17.343  15.707   4.468
  252ETHO    O122484  17.235  15.548   4.406
  252ETHO    C122485  17.148  15.553   4.287
  252ETHO   H1122486  17.129  15.661   4.269
  252ETHO   H1322487  17.208  15.512   4.202
  252ETHO    C222488  17.015  15.476   4.299
  252ETHO   H2122489  17.053  15.373   4.318
  252ETHO   H2322490  16.971  15.475   4.197
  253ETHO    O122491  16.923  15.532   4.395
  253ETHO    C122492  16.830  15.616   4.324
  253ETHO   H1122493  16.768  15.547   4.262
  253ETHO   H1322494  16.890  15.692   4.269
  253ETHO    C222495  16.739  15.684   4.422
  253ETHO   H2122496  16.723  15.612   4.506
  253ETHO   H2322497  16.641  15.702   4.373
  254ETHO    O122498  16.789  15.807   4.463
  254ETHO    C122499  16.730  15.864   4.579
  254ETHO   H1122500  16.620  15.878   4.566
  254ETHO   H1322501  16.737  15.795   4.665
  254ETHO    C222502  16.793  15.995   4.633
  254ETHO   H2122503  16.904  15.987   4.635
  254ETHO   H2322504  16.746  16.017   4.731
  255ETHO    O122505  16.759  16.092   4.538
  255ETHO    C122506  16.819  16.221   4.564
  255ETHO   H1122507  16.813  16.291   4.478
  255ETHO   H1322508  16.927  16.216   4.590
  255ETHO    C222509  16.741  16.267   4.686
  255ETHO   H2122510  16.636  16.233   4.672
  255ETHO   H2322511  16.746  16.378   4.690
  256ETHO    O122512  16.799  16.226   4.816
  256ETHO    C122513  16.697  16.227   4.915
  256ETHO   H1122514  16.640  16.322   4.907
  256ETHO   H1322515  16.627  16.142   4.901
  256ETHO    C222516  16.757  16.219   5.051
  256ETHO   H2122517  16.834  16.139   5.059
  256ETHO   H2322518  16.676  16.192   5.122
  257ETHO    O122519  16.823  16.340   5.090
  257ETHO    C122520  16.850  16.350   5.226
  257ETHO   H1122521  16.802  16.268   5.285
  257ETHO   H1322522  16.805  16.445   5.261
  257ETHO    C222523  17.004  16.366   5.258
  257ETHO   H2122524  17.000  16.397   5.365
  257ETHO   H2322525  17.060  16.437   5.194
  258ETHO    O122526  17.068  16.234   5.255
  258ETHO    C122527  17.185  16.222   5.338
  258ETHO   H1122528  17.180  16.295   5.422
  258ETHO   H1322529  17.170  16.119   5.377
  258ETHO    C222530  17.314  16.247   5.257
  258ETHO   H2122531  17.407  16.259   5.317
  258ETHO   H2322532  17.299  16.335   5.191
  259ETHO    O122533  17.343  16.133   5.171
  259ETHO    C122534  17.446  16.166   5.069
  259ETHO   H1122535  17.392  16.217   4.986
  259ETHO   H1322536  17.526  16.237   5.099
  259ETHO    C222537  17.523  16.045   5.029
  259ETHO   H2122538  17.454  15.966   4.992
  259ETHO   H2322539  17.582  15.999   5.111
  260ETHO    O122540  17.610  16.086   4.924
  260ETHO    C122541  17.707  15.996   4.881
  260ETHO   H1122542  17.797  16.010   4.945
  260ETHO   H1322543  17.676  15.894   4.913
  260ETHO    C222544  17.761  16.008   4.744
  260ETHO   H2122545  17.828  15.923   4.721
  260ETHO   H2322546  17.819  16.101   4.727
  261ETHO    O122547  17.651  16.003   4.654
  261ETHO    C122548  17.699  16.000   4.517
  261ETHO   H1122549  17.722  16.105   4.488
  261ETHO   H1322550  17.800  15.954   4.512
  261ETHO    C222551  17.580  15.949   4.437
  261ETHO   H2122552  17.570  15.843   4.468
  261ETHO   H2322553  17.606  15.944   4.329
  262ETHO    O122554  17.464  16.036   4.442
  262ETHO    C122555  17.375  16.014   4.336
  262ETHO   H1122556  17.338  15.910   4.353
  262ETHO   H1322557  17.415  16.022   4.233
  262ETHO    C222558  17.264  16.114   4.351
  262ETHO   H2122559  17.215  16.107   4.451
  262ETHO   H2322560  17.180  16.097   4.281
  263ETHO    O122561  17.318  16.246   4.333
  263ETHO    C122562  17.222  16.342   4.352
  263ETHO   H1122563  17.193  16.339   4.460
  263ETHO   H1322564  17.127  16.323   4.298
  263ETHO    C222565  17.275  16.478   4.302
  263ETHO   H2122566  17.188  16.547   4.290
  263ETHO   H2322567  17.322  16.473   4.202
  264ETHO    O122568  17.379  16.532   4.379
  264ETHO    C122569  17.338  16.599   4.498
  264ETHO   H1122570  17.229  16.615   4.483
  264ETHO   H1322571  17.396  16.693   4.508
  264ETHO    C222572  17.350  16.504   4.623
  264ETHO   H2122573  17.395  16.558   4.709
  264ETHO   H2322574  17.408  16.414   4.592
  265ETHO    O122575  17.232  16.458   4.677
  265ETHO    C122576  17.258  16.355   4.771
  265ETHO   H1122577  17.312  16.276   4.716
  265ETHO   H1322578  17.342  16.377   4.840
  265ETHO    C222579  17.135  16.298   4.847
  265ETHO   H2122580  17.174  16.209   4.902
  265ETHO   H2322581  17.059  16.271   4.770
  265ETHO    OZ22582  17.086  16.385   4.946
  265ETHO   HZ122583  17.003  16.347   4.975
    1ETHO    O122584  14.124  17.385  20.631
    1ETHO   HO122585  14.148  17.418  20.718
    1ETHO    C122586  14.157  17.491  20.548
    1ETHO   H1122587  14.146  17.466  20.440
    1ETHO   H1322588  14.260  17.530  20.555
    1ETHO    C222589  14.064  17.609  20.595
    1ETHO   H2122590  13.964  17.561  20.603
    1ETHO   H2322591  14.067  17.681  20.510
    2ETHO    O122592  14.095  17.664  20.723
    2ETHO    C122593  13.989  17.729  20.784
    2ETHO   H1122594  13.952  17.803  20.709
    2ETHO   H1322595  13.899  17.664  20.785
    2ETHO    C222596  14.029  17.793  20.922
    2ETHO   H2122597  13.956  17.877  20.925
    2ETHO   H2322598  14.129  17.838  20.909
    3ETHO    O122599  14.027  17.699  21.036
    3ETHO    C122600  14.068  17.764  21.159
    3ETHO   H1122601  14.000  17.846  21.191
    3ETHO   H1322602  14.165  17.817  21.144
    3ETHO    C222603  14.086  17.675  21.278
    3ETHO   H2122604  14.149  17.734  21.349
    3ETHO   H2322605  14.140  17.580  21.257
    4ETHO    O122606  13.975  17.659  21.364
    4ETHO    C122607  13.994  17.588  21.487
    4ETHO   H1122608  14.045  17.492  21.463
    4ETHO   H1322609  14.061  17.652  21.549
    4ETHO    C222610  13.857  17.577  21.561
    4ETHO   H2122611  13.790  17.510  21.502
    4ETHO   H2322612  13.817  17.680  21.570
    5ETHO    O122613  13.886  17.515  21.685
    5ETHO    C122614  13.765  17.505  21.763
    5ETHO   H1122615  13.726  17.609  21.769
    5ETHO   H1322616  13.693  17.431  21.723
    5ETHO    C222617  13.804  17.473  21.910
    5ETHO   H2122618  13.893  17.538  21.925
    5ETHO   H2322619  13.812  17.363  21.906
    6ETHO    O122620  13.698  17.520  22.001
    6ETHO    C122621  13.714  17.453  22.123
    6ETHO   H1122622  13.709  17.343  22.110
    6ETHO   H1322623  13.819  17.472  22.155
    6ETHO    C222624  13.613  17.508  22.228
    6ETHO   H2122625  13.616  17.619  22.233
    6ETHO   H2322626  13.662  17.473  22.321
    7ETHO    O122627  13.486  17.451  22.197
    7ETHO    C122628  13.376  17.527  22.248
    7ETHO   H1122629  13.396  17.537  22.357
    7ETHO   H1322630  13.373  17.629  22.203
    7ETHO    C222631  13.251  17.447  22.217
    7ETHO   H2122632  13.171  17.500  22.274
    7ETHO   H2322633  13.254  17.350  22.271
    8ETHO    O122634  13.219  17.428  22.082
    8ETHO    C122635  13.178  17.294  22.056
    8ETHO   H1122636  13.255  17.218  22.081
    8ETHO   H1322637  13.151  17.290  21.949
    8ETHO    C222638  13.037  17.268  22.127
    8ETHO   H2122639  13.028  17.318  22.226
    8ETHO   H2322640  13.020  17.158  22.129
    9ETHO    O122641  12.941  17.314  22.037
    9ETHO    C122642  12.807  17.313  22.097
    9ETHO   H1122643  12.815  17.354  22.200
    9ETHO   H1322644  12.749  17.386  22.036
    9ETHO    C222645  12.742  17.177  22.102
    9ETHO   H2122646  12.653  17.173  22.169
    9ETHO   H2322647  12.816  17.098  22.129
   10ETHO    O122648  12.674  17.141  21.977
   10ETHO    C122649  12.577  17.036  21.986
   10ETHO   H1122650  12.508  17.060  22.070
   10ETHO   H1322651  12.629  16.942  22.014
   10ETHO    C222652  12.497  17.020  21.857
   10ETHO   H2122653  12.448  17.111  21.815
   10ETHO   H2322654  12.400  16.967  21.868
   11ETHO    O122655  12.576  16.958  21.756
   11ETHO    C122656  12.555  16.819  21.757
   11ETHO   H1122657  12.567  16.775  21.858
   11ETHO   H1322658  12.452  16.788  21.730
   11ETHO    C222659  12.647  16.748  21.655
   11ETHO   H2122660  12.620  16.640  21.663
   11ETHO   H2322661  12.622  16.779  21.551
   12ETHO    O122662  12.785  16.765  21.685
   12ETHO    C122663  12.862  16.750  21.562
   12ETHO   H1122664  12.860  16.842  21.499
   12ETHO   H1322665  12.818  16.670  21.499
   12ETHO    C222666  13.007  16.717  21.593
   12ETHO   H2122667  13.063  16.674  21.508
   12ETHO   H2322668  13.012  16.639  21.672
   13ETHO    O122669  13.091  16.836  21.621
   13ETHO    C122670  13.229  16.800  21.624
   13ETHO   H1122671  13.260  16.753  21.529
   13ETHO   H1322672  13.297  16.887  21.628
   13ETHO    C222673  13.270  16.706  21.737
   13ETHO   H2122674  13.218  16.733  21.831
   13ETHO   H2322675  13.375  16.720  21.770
   14ETHO    O122676  13.250  16.568  21.706
   14ETHO    C122677  13.353  16.522  21.621
   14ETHO   H1122678  13.443  16.507  21.684
   14ETHO   H1322679  13.384  16.589  21.539
   14ETHO    C222680  13.325  16.382  21.551
   14ETHO   H2122681  13.283  16.304  21.618
   14ETHO   H2322682  13.419  16.341  21.509
   15ETHO    O122683  13.238  16.400  21.441
   15ETHO    C122684  13.100  16.380  21.472
   15ETHO   H1122685  13.088  16.276  21.510
   15ETHO   H1322686  13.080  16.442  21.562
   15ETHO    C222687  13.020  16.396  21.347
   15ETHO   H2122688  13.063  16.340  21.261
   15ETHO   H2322689  12.916  16.362  21.368
   16ETHO    O122690  13.017  16.533  21.312
   16ETHO    C122691  12.919  16.571  21.215
   16ETHO   H1122692  12.912  16.490  21.140
   16ETHO   H1322693  12.825  16.579  21.274
   16ETHO    C222694  12.946  16.722  21.164
   16ETHO   H2122695  12.954  16.780  21.258
   16ETHO   H2322696  12.855  16.757  21.111
   17ETHO    O122697  13.057  16.746  21.083
   17ETHO    C122698  13.180  16.750  21.159
   17ETHO   H1122699  13.166  16.836  21.229
   17ETHO   H1322700  13.191  16.654  21.214
   17ETHO    C222701  13.308  16.779  21.075
   17ETHO   H2122702  13.386  16.763  21.152
   17ETHO   H2322703  13.311  16.884  21.038
   18ETHO    O122704  13.338  16.682  20.975
   18ETHO    C122705  13.358  16.743  20.849
   18ETHO   H1122706  13.264  16.789  20.812
   18ETHO   H1322707  13.426  16.831  20.854
   18ETHO    C222708  13.401  16.636  20.741
   18ETHO   H2122709  13.483  16.570  20.776
   18ETHO   H2322710  13.441  16.683  20.649
   19ETHO    O122711  13.294  16.546  20.716
   19ETHO    C122712  13.323  16.447  20.611
   19ETHO   H1122713  13.427  16.414  20.628
   19ETHO   H1322714  13.298  16.482  20.508
   19ETHO    C222715  13.228  16.324  20.642
   19ETHO   H2122716  13.239  16.293  20.748
   19ETHO   H2322717  13.267  16.245  20.575
   20ETHO    O122718  13.093  16.354  20.624
   20ETHO    C122719  13.015  16.237  20.602
   20ETHO   H1122720  13.079  16.153  20.567
   20ETHO   H1322721  12.967  16.222  20.701
   20ETHO    C222722  12.910  16.259  20.493
   20ETHO   H2122723  12.885  16.166  20.437
   20ETHO   H2322724  12.961  16.320  20.416
   21ETHO    O122725  12.790  16.324  20.540
   21ETHO    C122726  12.699  16.337  20.434
   21ETHO   H1122727  12.629  16.251  20.429
   21ETHO   H1322728  12.755  16.349  20.338
   21ETHO    C222729  12.617  16.468  20.454
   21ETHO   H2122730  12.545  16.475  20.369
   21ETHO   H2322731  12.676  16.562  20.451
   22ETHO    O122732  12.544  16.462  20.576
   22ETHO    C122733  12.431  16.548  20.572
   22ETHO   H1122734  12.461  16.653  20.552
   22ETHO   H1322735  12.362  16.515  20.491
   22ETHO    C222736  12.342  16.536  20.700
   22ETHO   H2122737  12.254  16.593  20.662
   22ETHO   H2322738  12.307  16.433  20.718
   23ETHO    O122739  12.400  16.605  20.814
   23ETHO    C122740  12.305  16.641  20.914
   23ETHO   H1122741  12.199  16.622  20.887
   23ETHO   H1322742  12.321  16.750  20.929
   23ETHO    C222743  12.335  16.572  21.048
   23ETHO   H2122744  12.337  16.463  21.027
   23ETHO   H2322745  12.244  16.592  21.108
   24ETHO    O122746  12.456  16.615  21.113
   24ETHO    C122747  12.454  16.742  21.176
   24ETHO   H1122748  12.553  16.772  21.217
   24ETHO   H1322749  12.431  16.820  21.101
   24ETHO    C222750  12.347  16.756  21.298
   24ETHO   H2122751  12.239  16.747  21.272
   24ETHO   H2322752  12.359  16.862  21.328
   25ETHO    O122753  12.380  16.666  21.403
   25ETHO    C122754  12.254  16.620  21.466
   25ETHO   H1122755  12.191  16.578  21.386
   25ETHO   H1322756  12.199  16.708  21.506
   25ETHO    C222757  12.272  16.518  21.577
   25ETHO   H2122758  12.171  16.489  21.613
   25ETHO   H2322759  12.333  16.573  21.652
   26ETHO    O122760  12.336  16.403  21.520
   26ETHO    C122761  12.333  16.296  21.612
   26ETHO   H1122762  12.405  16.326  21.692
   26ETHO   H1322763  12.231  16.283  21.653
   26ETHO    C222764  12.382  16.162  21.556
   26ETHO   H2122765  12.317  16.120  21.476
   26ETHO   H2322766  12.387  16.097  21.645
   27ETHO    O122767  12.516  16.162  21.513
   27ETHO    C122768  12.568  16.034  21.512
   27ETHO   H1122769  12.502  15.973  21.447
   27ETHO   H1322770  12.565  15.992  21.615
   27ETHO    C222771  12.715  16.027  21.471
   27ETHO   H2122772  12.760  15.930  21.499
   27ETHO   H2322773  12.780  16.093  21.532
   28ETHO    O122774  12.747  16.046  21.337
   28ETHO    C122775  12.700  16.168  21.286
   28ETHO   H1122776  12.589  16.161  21.281
   28ETHO   H1322777  12.731  16.248  21.358
   28ETHO    C222778  12.762  16.204  21.150
   28ETHO   H2122779  12.729  16.308  21.131
   28ETHO   H2322780  12.725  16.141  21.066
   29ETHO    O122781  12.903  16.188  21.158
   29ETHO    C122782  12.970  16.186  21.038
   29ETHO   H1122783  12.954  16.286  20.993
   29ETHO   H1322784  12.925  16.108  20.974
   29ETHO    C222785  13.125  16.157  21.041
   29ETHO   H2122786  13.183  16.226  21.106
   29ETHO   H2322787  13.168  16.178  20.941
   30ETHO    O122788  13.145  16.019  21.064
   30ETHO    C122789  13.276  15.988  21.071
   30ETHO   H1122790  13.313  16.019  20.971
   30ETHO   H1322791  13.336  16.049  21.141
   30ETHO    C222792  13.291  15.844  21.113
   30ETHO   H2122793  13.260  15.778  21.029
   30ETHO   H2322794  13.230  15.826  21.205
   31ETHO    O122795  13.430  15.810  21.124
   31ETHO    C122796  13.460  15.701  21.210
   31ETHO   H1122797  13.430  15.731  21.313
   31ETHO   H1322798  13.401  15.611  21.184
   31ETHO    C222799  13.614  15.672  21.203
   31ETHO   H2122800  13.637  15.594  21.279
   31ETHO   H2322801  13.677  15.759  21.230
   32ETHO    O122802  13.663  15.622  21.078
   32ETHO    C122803  13.805  15.637  21.071
   32ETHO   H1122804  13.832  15.741  21.100
   32ETHO   H1322805  13.859  15.561  21.131
   32ETHO    C222806  13.851  15.613  20.925
   32ETHO   H2122807  13.960  15.630  20.924
   32ETHO   H2322808  13.780  15.677  20.868
   33ETHO    O122809  13.817  15.475  20.891
   33ETHO    C122810  13.896  15.419  20.791
   33ETHO   H1122811  14.003  15.426  20.819
   33ETHO   H1322812  13.864  15.313  20.788
   33ETHO    C222813  13.866  15.471  20.645
   33ETHO   H2122814  13.887  15.580  20.645
   33ETHO   H2322815  13.756  15.461  20.634
   34ETHO    O122816  13.931  15.388  20.539
   34ETHO    C122817  13.876  15.420  20.414
   34ETHO   H1122818  13.864  15.529  20.394
   34ETHO   H1322819  13.777  15.368  20.410
   34ETHO    C222820  13.960  15.381  20.293
   34ETHO   H2122821  13.900  15.376  20.199
   34ETHO   H2322822  13.999  15.279  20.314
   35ETHO    O122823  14.068  15.472  20.260
   35ETHO    C122824  14.167  15.399  20.185
   35ETHO   H1122825  14.190  15.303  20.237
   35ETHO   H1322826  14.122  15.373  20.087
   35ETHO    C222827  14.295  15.485  20.166
   35ETHO   H2122828  14.266  15.591  20.152
   35ETHO   H2322829  14.341  15.443  20.074
   36ETHO    O122830  14.389  15.477  20.264
   36ETHO    C122831  14.502  15.567  20.251
   36ETHO   H1122832  14.548  15.572  20.352
   36ETHO   H1322833  14.470  15.670  20.224
   36ETHO    C222834  14.623  15.526  20.164
   36ETHO   H2122835  14.701  15.600  20.193
   36ETHO   H2322836  14.592  15.531  20.058
   37ETHO    O122837  14.662  15.396  20.204
   37ETHO    C122838  14.763  15.344  20.121
   37ETHO   H1122839  14.720  15.320  20.021
   37ETHO   H1322840  14.842  15.421  20.110
   37ETHO    C222841  14.817  15.219  20.188
   37ETHO   H2122842  14.863  15.165  20.102
   37ETHO   H2322843  14.740  15.152  20.230
   38ETHO    O122844  14.911  15.243  20.296
   38ETHO    C122845  14.990  15.129  20.338
   38ETHO   H1122846  15.053  15.093  20.254
   38ETHO   H1322847  14.918  15.054  20.377
   38ETHO    C222848  15.091  15.164  20.444
   38ETHO   H2122849  15.141  15.259  20.415
   38ETHO   H2322850  15.157  15.076  20.438
   39ETHO    O122851  15.033  15.196  20.574
   39ETHO    C122852  15.133  15.200  20.673
   39ETHO   H1122853  15.162  15.095  20.693
   39ETHO   H1322854  15.220  15.261  20.643
   39ETHO    C222855  15.081  15.261  20.805
   39ETHO   H2122856  15.125  15.193  20.882
   39ETHO   H2322857  14.972  15.243  20.816
   40ETHO    O122858  15.119  15.400  20.828
   40ETHO    C122859  15.046  15.492  20.748
   40ETHO   H1122860  14.938  15.474  20.767
   40ETHO   H1322861  15.064  15.467  20.641
   40ETHO    C222862  15.089  15.638  20.768
   40ETHO   H2122863  15.038  15.701  20.692
   40ETHO   H2322864  15.199  15.636  20.753
   41ETHO    O122865  15.058  15.683  20.894
   41ETHO    C122866  15.121  15.810  20.925
   41ETHO   H1122867  15.127  15.827  21.035
   41ETHO   H1322868  15.226  15.808  20.889
   41ETHO    C222869  15.040  15.919  20.861
   41ETHO   H2122870  15.022  15.895  20.754
   41ETHO   H2322871  15.103  16.010  20.852
   42ETHO    O122872  14.918  15.949  20.924
   42ETHO    C122873  14.821  15.996  20.834
   42ETHO   H1122874  14.837  16.100  20.800
   42ETHO   H1322875  14.830  15.935  20.741
   42ETHO    C222876  14.676  15.991  20.888
   42ETHO   H2122877  14.659  15.888  20.925
   42ETHO   H2322878  14.606  16.004  20.803
   43ETHO    O122879  14.648  16.096  20.984
   43ETHO    C122880  14.523  16.080  21.049
   43ETHO   H1122881  14.447  16.072  20.968
   43ETHO   H1322882  14.527  15.983  21.104
   43ETHO    C222883  14.517  16.201  21.145
   43ETHO   H2122884  14.412  16.231  21.165
   43ETHO   H2322885  14.569  16.292  21.107
   44ETHO    O122886  14.569  16.168  21.270
   44ETHO    C122887  14.600  16.286  21.354
   44ETHO   H1122888  14.675  16.350  21.303
   44ETHO   H1322889  14.514  16.354  21.368
   44ETHO    C222890  14.667  16.240  21.486
   44ETHO   H2122891  14.721  16.321  21.539
   44ETHO   H2322892  14.742  16.160  21.466
   45ETHO    O122893  14.572  16.188  21.573
   45ETHO    C122894  14.620  16.166  21.706
   45ETHO   H1122895  14.628  16.268  21.747
   45ETHO   H1322896  14.721  16.121  21.709
   45ETHO    C222897  14.536  16.075  21.785
   45ETHO   H2122898  14.433  16.115  21.792
   45ETHO   H2322899  14.576  16.075  21.889
   46ETHO    O122900  14.535  15.943  21.735
   46ETHO    C122901  14.473  15.855  21.826
   46ETHO   H1122902  14.475  15.879  21.934
   46ETHO   H1322903  14.364  15.865  21.807
   46ETHO    C222904  14.518  15.714  21.801
   46ETHO   H2122905  14.498  15.653  21.891
   46ETHO   H2322906  14.629  15.723  21.795
   47ETHO    O122907  14.466  15.656  21.676
   47ETHO    C122908  14.333  15.597  21.692
   47ETHO   H1122909  14.258  15.655  21.751
   47ETHO   H1322910  14.345  15.500  21.746
   47ETHO    C222911  14.261  15.556  21.566
   47ETHO   H2122912  14.191  15.471  21.583
   47ETHO   H2322913  14.348  15.523  21.504
   48ETHO    O122914  14.193  15.660  21.500
   48ETHO    C122915  14.192  15.654  21.362
   48ETHO   H1122916  14.294  15.674  21.325
   48ETHO   H1322917  14.165  15.550  21.333
   48ETHO    C222918  14.089  15.744  21.297
   48ETHO   H2122919  14.073  15.707  21.194
   48ETHO   H2322920  13.989  15.725  21.343
   49ETHO    O122921  14.111  15.879  21.296
   49ETHO    C122922  14.141  15.933  21.169
   49ETHO   H1122923  14.058  15.913  21.098
   49ETHO   H1322924  14.236  15.891  21.130
   49ETHO    C222925  14.145  16.084  21.158
   49ETHO   H2122926  14.211  16.122  21.077
   49ETHO   H2322927  14.184  16.120  21.256
   50ETHO    O122928  14.019  16.140  21.129
   50ETHO    C122929  14.031  16.283  21.112
   50ETHO   H1122930  14.067  16.320  21.211
   50ETHO   H1322931  14.095  16.303  21.024
   50ETHO    C222932  13.893  16.332  21.089
   50ETHO   H2122933  13.898  16.439  21.116
   50ETHO   H2322934  13.822  16.282  21.158
   51ETHO    O122935  13.863  16.313  20.949
   51ETHO    C122936  13.723  16.317  20.928
   51ETHO   H1122937  13.682  16.414  20.962
   51ETHO   H1322938  13.668  16.248  20.997
   51ETHO    C222939  13.698  16.284  20.784
   51ETHO   H2122940  13.588  16.268  20.774
   51ETHO   H2322941  13.740  16.184  20.758
   52ETHO    O122942  13.755  16.381  20.704
   52ETHO    C122943  13.746  16.346  20.563
   52ETHO   H1122944  13.815  16.261  20.548
   52ETHO   H1322945  13.640  16.317  20.547
   52ETHO    C222946  13.787  16.461  20.468
   52ETHO   H2122947  13.724  16.549  20.490
   52ETHO   H2322948  13.746  16.419  20.374
   53ETHO    O122949  13.927  16.487  20.456
   53ETHO    C122950  13.950  16.562  20.336
   53ETHO   H1122951  13.901  16.513  20.249
   53ETHO   H1322952  13.905  16.662  20.351
   53ETHO    C222953  14.100  16.583  20.315
   53ETHO   H2122954  14.124  16.622  20.214
   53ETHO   H2322955  14.153  16.485  20.313
   54ETHO    O122956  14.149  16.676  20.411
   54ETHO    C122957  14.282  16.722  20.390
   54ETHO   H1122958  14.294  16.772  20.292
   54ETHO   H1322959  14.302  16.785  20.479
   54ETHO    C222960  14.397  16.617  20.382
   54ETHO   H2122961  14.386  16.553  20.471
   54ETHO   H2322962  14.494  16.670  20.369
   55ETHO    O122963  14.385  16.525  20.271
   55ETHO    C122964  14.494  16.432  20.277
   55ETHO   H1122965  14.590  16.485  20.260
   55ETHO   H1322966  14.508  16.387  20.378
   55ETHO    C222967  14.473  16.311  20.189
   55ETHO   H2122968  14.474  16.341  20.083
   55ETHO   H2322969  14.552  16.232  20.191
   56ETHO    O122970  14.344  16.254  20.214
   56ETHO    C122971  14.324  16.119  20.174
   56ETHO   H1122972  14.412  16.056  20.197
   56ETHO   H1322973  14.314  16.112  20.064
   56ETHO    C222974  14.208  16.059  20.259
   56ETHO   H2122975  14.223  16.088  20.365
   56ETHO   H2322976  14.215  15.949  20.247
   57ETHO    O122977  14.078  16.095  20.219
   57ETHO    C122978  13.981  16.014  20.287
   57ETHO   H1122979  14.012  15.970  20.384
   57ETHO   H1322980  13.892  16.077  20.306
   57ETHO    C222981  13.935  15.900  20.186
   57ETHO   H2122982  13.903  15.948  20.091
   57ETHO   H2322983  13.846  15.846  20.224
   58ETHO    O122984  14.032  15.804  20.159
   58ETHO    C122985  14.002  15.718  20.046
   58ETHO   H1122986  13.893  15.707  20.026
   58ETHO   H1322987  14.040  15.614  20.048
   58ETHO    C222988  14.067  15.781  19.914
   58ETHO   H2122989  14.052  15.891  19.915
   58ETHO   H2322990  14.007  15.743  19.829
   59ETHO    O122991  14.203  15.746  19.890
   59ETHO    C122992  14.287  15.820  19.975
   59ETHO   H1122993  14.260  15.927  19.985
   59ETHO   H1322994  14.266  15.774  20.074
   59ETHO    C222995  14.424  15.826  19.915
   59ETHO   H2122996  14.468  15.727  19.890
   59ETHO   H2322997  14.496  15.867  19.989
   60ETHO    O122998  14.422  15.916  19.802
   60ETHO    C122999  14.547  15.921  19.736
   60ETHO   H1123000  14.565  15.830  19.676
   60ETHO   H1323001  14.636  15.929  19.802
   60ETHO    C223002  14.542  16.035  19.629
   60ETHO   H2123003  14.439  16.043  19.588
   60ETHO   H2323004  14.619  16.019  19.551
   61ETHO    O123005  14.556  16.165  19.682
   61ETHO    C123006  14.692  16.214  19.661
   61ETHO   H1123007  14.759  16.131  19.693
   61ETHO   H1323008  14.708  16.232  19.553
   61ETHO    C223009  14.729  16.339  19.740
   61ETHO   H2123010  14.660  16.419  19.708
   61ETHO   H2323011  14.835  16.366  19.721
   62ETHO    O123012  14.703  16.323  19.874
   62ETHO    C123013  14.755  16.439  19.943
   62ETHO   H1123014  14.674  16.497  19.993
   62ETHO   H1323015  14.808  16.507  19.873
   62ETHO    C223016  14.844  16.398  20.061
   62ETHO   H2123017  14.852  16.490  20.124
   62ETHO   H2323018  14.944  16.372  20.021
   63ETHO    O123019  14.809  16.288  20.144
   63ETHO    C123020  14.854  16.310  20.285
   63ETHO   H1123021  14.954  16.359  20.289
   63ETHO   H1323022  14.796  16.395  20.327
   63ETHO    C223023  14.856  16.190  20.369
   63ETHO   H2123024  14.917  16.211  20.459
   63ETHO   H2323025  14.913  16.110  20.316
   64ETHO    O123026  14.723  16.159  20.399
   64ETHO    C123027  14.712  16.056  20.499
   64ETHO   H1123028  14.603  16.063  20.520
   64ETHO   H1323029  14.776  16.091  20.582
   64ETHO    C223030  14.754  15.919  20.444
   64ETHO   H2123031  14.710  15.915  20.342
   64ETHO   H2323032  14.717  15.834  20.506
   65ETHO    O123033  14.899  15.900  20.439
   65ETHO    C123034  14.932  15.773  20.387
   65ETHO   H1123035  14.887  15.697  20.453
   65ETHO   H1323036  14.887  15.744  20.289
   65ETHO    C223037  15.086  15.761  20.367
   65ETHO   H2123038  15.125  15.840  20.298
   65ETHO   H2323039  15.111  15.662  20.322
   66ETHO    O123040  15.150  15.773  20.492
   66ETHO    C123041  15.293  15.763  20.469
   66ETHO   H1123042  15.313  15.811  20.371
   66ETHO   H1323043  15.320  15.656  20.459
   66ETHO    C223044  15.387  15.831  20.575
   66ETHO   H2123045  15.492  15.804  20.550
   66ETHO   H2323046  15.376  15.789  20.677
   67ETHO    O123047  15.372  15.972  20.565
   67ETHO    C123048  15.461  16.048  20.648
   67ETHO   H1123049  15.410  16.131  20.701
   67ETHO   H1323050  15.474  15.979  20.734
   67ETHO    C223051  15.600  16.076  20.600
   67ETHO   H2123052  15.618  16.174  20.551
   67ETHO   H2323053  15.622  15.998  20.524
   68ETHO    O123054  15.691  16.072  20.712
   68ETHO    C123055  15.682  16.196  20.791
   68ETHO   H1123056  15.577  16.232  20.785
   68ETHO   H1323057  15.688  16.183  20.901
   68ETHO    C223058  15.766  16.315  20.758
   68ETHO   H2123059  15.736  16.412  20.803
   68ETHO   H2323060  15.743  16.330  20.651
   69ETHO    O123061  15.897  16.282  20.787
   69ETHO    C123062  15.994  16.388  20.772
   69ETHO   H1123063  16.086  16.335  20.804
   69ETHO   H1323064  16.005  16.411  20.664
   69ETHO    C223065  15.972  16.516  20.843
   69ETHO   H2123066  15.880  16.572  20.814
   69ETHO   H2323067  16.052  16.585  20.809
   70ETHO    O123068  15.969  16.510  20.982
   70ETHO    C123069  16.014  16.622  21.050
   70ETHO   H1123070  15.989  16.593  21.154
   70ETHO   H1323071  16.123  16.624  21.031
   70ETHO    C223072  15.942  16.752  21.020
   70ETHO   H2123073  15.987  16.833  21.082
   70ETHO   H2323074  15.834  16.738  21.042
   71ETHO    O123075  15.969  16.808  20.890
   71ETHO    C123076  15.869  16.896  20.847
   71ETHO   H1123077  15.773  16.840  20.846
   71ETHO   H1323078  15.896  16.928  20.745
   71ETHO    C223079  15.860  17.026  20.933
   71ETHO   H2123080  15.790  17.104  20.896
   71ETHO   H2323081  15.962  17.065  20.953
   72ETHO    O123082  15.785  16.989  21.053
   72ETHO    C123083  15.838  17.062  21.162
   72ETHO   H1123084  15.946  17.045  21.182
   72ETHO   H1323085  15.800  17.164  21.141
   72ETHO    C223086  15.766  17.032  21.294
   72ETHO   H2123087  15.657  17.053  21.288
   72ETHO   H2323088  15.809  17.106  21.365
   73ETHO    O123089  15.796  16.900  21.334
   73ETHO    C123090  15.684  16.815  21.324
   73ETHO   H1123091  15.631  16.824  21.226
   73ETHO   H1323092  15.621  16.846  21.409
   73ETHO    C223093  15.722  16.668  21.333
   73ETHO   H2123094  15.801  16.643  21.260
   73ETHO   H2323095  15.638  16.598  21.313
   74ETHO    O123096  15.767  16.646  21.462
   74ETHO    C123097  15.768  16.508  21.492
   74ETHO   H1123098  15.665  16.477  21.519
   74ETHO   H1323099  15.806  16.448  21.407
   74ETHO    C223100  15.848  16.484  21.620
   74ETHO   H2123101  15.834  16.381  21.659
   74ETHO   H2323102  15.814  16.567  21.684
   75ETHO    O123103  15.985  16.522  21.598
   75ETHO    C123104  16.055  16.515  21.721
   75ETHO   H1123105  15.997  16.576  21.793
   75ETHO   H1323106  16.151  16.571  21.713
   75ETHO    C223107  16.085  16.375  21.789
   75ETHO   H2123108  16.160  16.408  21.863
   75ETHO   H2323109  16.147  16.313  21.721
   76ETHO    O123110  15.976  16.313  21.857
   76ETHO    C123111  16.021  16.217  21.951
   76ETHO   H1123112  16.082  16.274  22.025
   76ETHO   H1323113  15.929  16.188  22.005
   76ETHO    C223114  16.087  16.090  21.897
   76ETHO   H2123115  16.112  16.030  21.987
   76ETHO   H2323116  16.184  16.116  21.849
   77ETHO    O123117  15.998  16.012  21.821
   77ETHO    C123118  16.026  16.005  21.686
   77ETHO   H1123119  16.127  15.960  21.672
   77ETHO   H1323120  16.044  16.109  21.653
   77ETHO    C223121  15.925  15.920  21.600
   77ETHO   H2123122  15.929  15.811  21.623
   77ETHO   H2323123  15.953  15.913  21.493
   78ETHO    O123124  15.789  15.977  21.595
   78ETHO    C123125  15.693  15.884  21.549
   78ETHO   H1123126  15.711  15.855  21.444
   78ETHO   H1323127  15.701  15.797  21.619
   78ETHO    C223128  15.549  15.946  21.550
   78ETHO   H2123129  15.531  16.015  21.635
   78ETHO   H2323130  15.478  15.863  21.572
   79ETHO    O123131  15.517  16.009  21.424
   79ETHO    C123132  15.384  16.062  21.418
   79ETHO   H1123133  15.318  15.987  21.469
   79ETHO   H1323134  15.383  16.161  21.468
   79ETHO    C223135  15.332  16.086  21.275
   79ETHO   H2123136  15.222  16.104  21.283
   79ETHO   H2323137  15.346  16.009  21.196
   80ETHO    O123138  15.389  16.208  21.230
   80ETHO    C123139  15.335  16.235  21.100
   80ETHO   H1123140  15.364  16.164  21.020
   80ETHO   H1323141  15.224  16.239  21.100
   80ETHO    C223142  15.367  16.378  21.050
   80ETHO   H2123143  15.326  16.450  21.124
   80ETHO   H2323144  15.312  16.398  20.955
   81ETHO    O123145  15.505  16.391  21.023
   81ETHO    C123146  15.538  16.526  21.009
   81ETHO   H1123147  15.520  16.566  21.111
   81ETHO   H1323148  15.648  16.520  20.995
   81ETHO    C223149  15.479  16.600  20.893
   81ETHO   H2123150  15.368  16.596  20.889
   81ETHO   H2323151  15.513  16.705  20.898
   82ETHO    O123152  15.525  16.543  20.773
   82ETHO    C123153  15.494  16.623  20.655
   82ETHO   H1123154  15.552  16.718  20.655
   82ETHO   H1323155  15.387  16.651  20.666
   82ETHO    C223156  15.505  16.558  20.514
   82ETHO   H2123157  15.612  16.528  20.514
   82ETHO   H2323158  15.483  16.635  20.436
   83ETHO    O123159  15.419  16.447  20.499
   83ETHO    C123160  15.432  16.388  20.371
   83ETHO   H1123161  15.415  16.462  20.290
   83ETHO   H1323162  15.538  16.355  20.368
   83ETHO    C223163  15.321  16.284  20.350
   83ETHO   H2123164  15.230  16.347  20.351
   83ETHO   H2323165  15.322  16.213  20.435
   84ETHO    O123166  15.326  16.226  20.222
   84ETHO    C123167  15.213  16.149  20.191
   84ETHO   H1123168  15.122  16.206  20.219
   84ETHO   H1323169  15.228  16.054  20.246
   84ETHO    C223170  15.203  16.123  20.040
   84ETHO   H2123171  15.124  16.048  20.021
   84ETHO   H2323172  15.302  16.092  20.000
   85ETHO    O123173  15.151  16.235  19.972
   85ETHO    C123174  15.163  16.215  19.830
   85ETHO   H1123175  15.126  16.309  19.782
   85ETHO   H1323176  15.266  16.196  19.796
   85ETHO    C223177  15.071  16.108  19.775
   85ETHO   H2123178  15.048  16.137  19.670
   85ETHO   H2323179  14.973  16.116  19.828
   86ETHO    O123180  15.122  15.976  19.781
   86ETHO    C123181  15.034  15.886  19.720
   86ETHO   H1123182  15.014  15.924  19.618
   86ETHO   H1323183  14.948  15.866  19.787
   86ETHO    C223184  15.103  15.748  19.690
   86ETHO   H2123185  15.069  15.674  19.766
   86ETHO   H2323186  15.213  15.760  19.695
   87ETHO    O123187  15.055  15.702  19.560
   87ETHO    C123188  15.137  15.592  19.509
   87ETHO   H1123189  15.236  15.625  19.470
   87ETHO   H1323190  15.170  15.527  19.593
   87ETHO    C223191  15.060  15.517  19.407
   87ETHO   H2123192  14.964  15.486  19.452
   87ETHO   H2323193  15.107  15.428  19.361
   88ETHO    O123194  15.042  15.614  19.304
   88ETHO    C123195  14.974  15.568  19.187
   88ETHO   H1123196  14.876  15.527  19.218
   88ETHO   H1323197  15.035  15.494  19.131
   88ETHO    C223198  14.959  15.688  19.089
   88ETHO   H2123199  15.065  15.707  19.061
   88ETHO   H2323200  14.922  15.776  19.146
   89ETHO    O123201  14.873  15.655  18.985
   89ETHO    C123202  14.847  15.762  18.892
   89ETHO   H1123203  14.817  15.851  18.952
   89ETHO   H1323204  14.939  15.789  18.837
   89ETHO    C223205  14.752  15.731  18.780
   89ETHO   H2123206  14.727  15.831  18.739
   89ETHO   H2323207  14.652  15.687  18.800
   90ETHO    O123208  14.808  15.648  18.679
   90ETHO    C123209  14.767  15.678  18.547
   90ETHO   H1123210  14.658  15.655  18.540
   90ETHO   H1323211  14.783  15.787  18.533
   90ETHO    C223212  14.829  15.606  18.433
   90ETHO   H2123213  14.938  15.591  18.449
   90ETHO   H2323214  14.826  15.674  18.345
   91ETHO    O123215  14.774  15.475  18.405
   91ETHO    C123216  14.804  15.434  18.280
   91ETHO   H1123217  14.911  15.451  18.258
   91ETHO   H1323218  14.772  15.327  18.279
   91ETHO    C223219  14.714  15.503  18.181
   91ETHO   H2123220  14.741  15.605  18.148
   91ETHO   H2323221  14.611  15.513  18.224
   92ETHO    O123222  14.703  15.428  18.063
   92ETHO    C123223  14.825  15.434  17.980
   92ETHO   H1123224  14.839  15.535  17.935
   92ETHO   H1323225  14.921  15.403  18.026
   92ETHO    C223226  14.791  15.349  17.857
   92ETHO   H2123227  14.691  15.389  17.830
   92ETHO   H2323228  14.782  15.242  17.883
   93ETHO    O123229  14.874  15.384  17.746
   93ETHO    C123230  14.850  15.291  17.635
   93ETHO   H1123231  14.742  15.282  17.612
   93ETHO   H1323232  14.897  15.191  17.642
   93ETHO    C223233  14.910  15.362  17.506
   93ETHO   H2123234  15.018  15.388  17.512
   93ETHO   H2323235  14.865  15.464  17.508
   94ETHO    O123236  14.867  15.296  17.388
   94ETHO    C123237  14.896  15.355  17.265
   94ETHO   H1123238  14.927  15.461  17.281
   94ETHO   H1323239  14.983  15.293  17.233
   94ETHO    C223240  14.790  15.348  17.158
   94ETHO   H2123241  14.719  15.433  17.166
   94ETHO   H2323242  14.741  15.250  17.177
   95ETHO    O123243  14.847  15.354  17.024
   95ETHO    C123244  14.740  15.349  16.931
   95ETHO   H1123245  14.677  15.438  16.954
   95ETHO   H1323246  14.687  15.252  16.934
   95ETHO    C223247  14.808  15.355  16.795
   95ETHO   H2123248  14.887  15.277  16.805
   95ETHO   H2323249  14.849  15.457  16.781
   96ETHO    O123250  14.717  15.318  16.693
   96ETHO    C123251  14.791  15.292  16.576
   96ETHO   H1123252  14.868  15.372  16.570
   96ETHO   H1323253  14.858  15.203  16.588
   96ETHO    C223254  14.704  15.271  16.456
   96ETHO   H2123255  14.770  15.266  16.366
   96ETHO   H2323256  14.641  15.361  16.443
   97ETHO    O123257  14.614  15.156  16.456
   97ETHO    C123258  14.514  15.151  16.338
   97ETHO   H1123259  14.570  15.120  16.247
   97ETHO   H1323260  14.488  15.258  16.330
   97ETHO    C223261  14.386  15.072  16.370
   97ETHO   H2123262  14.306  15.104  16.300
   97ETHO   H2323263  14.353  15.096  16.473
   98ETHO    O123264  14.403  14.933  16.343
   98ETHO    C123265  14.373  14.894  16.206
   98ETHO   H1123266  14.269  14.923  16.179
   98ETHO   H1323267  14.454  14.944  16.148
   98ETHO    C223268  14.373  14.743  16.185
   98ETHO   H2123269  14.472  14.703  16.217
   98ETHO   H2323270  14.358  14.722  16.077
   99ETHO    O123271  14.278  14.672  16.262
   99ETHO    C123272  14.271  14.527  16.236
   99ETHO   H1123273  14.376  14.491  16.237
   99ETHO   H1323274  14.234  14.509  16.133
   99ETHO    C223275  14.183  14.454  16.336
   99ETHO   H2123276  14.226  14.466  16.438
   99ETHO   H2323277  14.190  14.350  16.297
  100ETHO    O123278  14.044  14.498  16.335
  100ETHO    C123279  13.960  14.429  16.426
  100ETHO   H1123280  13.978  14.321  16.405
  100ETHO   H1323281  13.976  14.456  16.532
  100ETHO    C223282  13.810  14.452  16.394
  100ETHO   H2123283  13.794  14.562  16.388
  100ETHO   H2323284  13.744  14.403  16.469
  101PROX    O123285  13.779  14.399  16.265
  101PROX    C123286  13.749  14.262  16.269
  101PROX   H1123287  13.799  14.208  16.352
  101PROX   H1323288  13.641  14.239  16.278
  101PROX    C223289  13.794  14.199  16.136
  101PROX   H2123290  13.741  14.254  16.055
  101PROX    C323291  13.729  14.065  16.126
  101PROX   H3123292  13.765  14.014  16.218
  101PROX   H3223293  13.621  14.077  16.101
  101PROX   H3323294  13.767  13.997  16.047
  102PROX    O123295  13.935  14.178  16.133
  102PROX    C123296  13.996  14.280  16.057
  102PROX   H1123297  13.920  14.360  16.042
  102PROX   H1323298  14.072  14.329  16.121
  102PROX    C223299  14.066  14.238  15.924
  102PROX   H2123300  13.986  14.186  15.867
  102PROX    C323301  14.182  14.137  15.950
  102PROX   H3123302  14.139  14.054  16.011
  102PROX   H3223303  14.226  14.092  15.858
  102PROX   H3323304  14.266  14.181  16.008
  103PROX    O123305  14.123  14.345  15.844
  103PROX    C123306  14.027  14.425  15.782
  103PROX   H1123307  13.927  14.411  15.829
  103PROX   H1323308  14.067  14.528  15.796
  103PROX    C223309  14.019  14.398  15.627
  103PROX   H2123310  13.988  14.292  15.615
  103PROX    C323311  14.158  14.406  15.555
  103PROX   H3123312  14.216  14.323  15.601
  103PROX   H3223313  14.150  14.380  15.447
  103PROX   H3323314  14.214  14.499  15.576
  104PROX    O123315  13.917  14.479  15.569
  104PROX    C123316  13.873  14.439  15.438
  104PROX   H1123317  13.947  14.478  15.365
  104PROX   H1323318  13.875  14.328  15.426
  104PROX    C223319  13.735  14.497  15.399
  104PROX   H2123320  13.745  14.607  15.386
  104PROX    C323321  13.622  14.473  15.495
  104PROX   H3123322  13.526  14.498  15.446
  104PROX   H3223323  13.610  14.365  15.522
  104PROX   H3323324  13.623  14.533  15.588
  105PROX    O123325  13.697  14.442  15.271
  105PROX    C123326  13.732  14.522  15.163
  105PROX   H1123327  13.660  14.606  15.152
  105PROX   H1323328  13.833  14.569  15.169
  105PROX    C223329  13.721  14.440  15.034
  105PROX   H2123330  13.613  14.418  15.021
  105PROX    C323331  13.799  14.305  15.037
  105PROX   H3123332  13.773  14.257  14.940
  105PROX   H3223333  13.907  14.332  15.033
  105PROX   H3323334  13.777  14.239  15.123
  106PROX    O123335  13.759  14.529  14.933
  106PROX    C123336  13.728  14.484  14.802
  106PROX   H1123337  13.802  14.544  14.746
  106PROX   H1323338  13.756  14.379  14.778
  106PROX    C223339  13.580  14.510  14.761
  106PROX   H2123340  13.514  14.437  14.813
  106PROX    C323341  13.546  14.499  14.618
  106PROX   H3123342  13.613  14.570  14.565
  106PROX   H3223343  13.574  14.405  14.566
  106PROX   H3323344  13.439  14.529  14.609
  107PROX    O123345  13.539  14.645  14.787
  107PROX    C123346  13.473  14.664  14.918
  107PROX   H1123347  13.403  14.583  14.947
  107PROX   H1323348  13.556  14.680  14.990
  107PROX    C223349  13.403  14.795  14.934
  107PROX   H2123350  13.320  14.790  14.860
  107PROX    C323351  13.491  14.914  14.900
  107PROX   H3123352  13.587  14.896  14.953
  107PROX   H3223353  13.503  14.920  14.789
  107PROX   H3323354  13.445  15.004  14.946
  108PROX    O123355  13.375  14.810  15.073
  108PROX    C123356  13.273  14.896  15.101
  108PROX   H1123357  13.299  15.004  15.107
  108PROX   H1323358  13.191  14.891  15.026
  108PROX    C223359  13.205  14.863  15.235
  108PROX   H2123360  13.107  14.916  15.236
  108PROX    C323361  13.288  14.897  15.359
  108PROX   H3123362  13.323  15.002  15.355
  108PROX   H3223363  13.231  14.890  15.454
  108PROX   H3323364  13.376  14.830  15.366
  109PROX    O123365  13.176  14.723  15.258
  109PROX    C123366  13.076  14.656  15.183
  109PROX   H1123367  12.987  14.722  15.191
  109PROX   H1323368  13.112  14.647  15.078
  109PROX    C223369  13.043  14.521  15.240
  109PROX   H2123370  12.980  14.465  15.167
  109PROX    C323371  12.965  14.524  15.373
  109PROX   H3123372  12.927  14.422  15.395
  109PROX   H3223373  13.026  14.560  15.459
  109PROX   H3323374  12.878  14.593  15.363
  110PROX    O123375  13.155  14.434  15.253
  110PROX    C123376  13.196  14.392  15.121
  110PROX   H1123377  13.119  14.359  15.049
  110PROX   H1323378  13.255  14.473  15.074
  110PROX    C223379  13.302  14.274  15.138
  110PROX   H2123380  13.246  14.194  15.192
  110PROX    C323381  13.408  14.312  15.235
  110PROX   H3123382  13.444  14.407  15.191
  110PROX   H3223383  13.377  14.331  15.340
  110PROX   H3323384  13.501  14.252  15.234
  111PROX    O123385  13.346  14.226  15.011
  111PROX    C123386  13.246  14.149  14.946
  111PROX   H1123387  13.280  14.043  14.944
  111PROX   H1323388  13.150  14.160  15.002
  111PROX    C223389  13.230  14.179  14.791
  111PROX   H2123390  13.254  14.286  14.774
  111PROX    C323391  13.098  14.136  14.727
  111PROX   H3123392  13.089  14.189  14.629
  111PROX   H3223393  13.091  14.026  14.714
  111PROX   H3323394  13.013  14.175  14.786
  112PROX    O123395  13.336  14.106  14.717
  112PROX    C123396  13.461  14.170  14.725
  112PROX   H1123397  13.475  14.229  14.633
  112PROX   H1323398  13.467  14.234  14.816
  112PROX    C223399  13.564  14.059  14.744
  112PROX   H2123400  13.535  13.966  14.691
  112PROX    C323401  13.594  14.041  14.893
  112PROX   H3123402  13.613  14.138  14.946
  112PROX   H3223403  13.508  13.999  14.949
  112PROX   H3323404  13.678  13.975  14.925
  113PROX    O123405  13.692  14.103  14.702
  113PROX    C123406  13.711  14.068  14.564
  113PROX   H1123407  13.674  13.965  14.546
  113PROX   H1323408  13.652  14.138  14.501
  113PROX    C223409  13.858  14.086  14.536
  113PROX   H2123410  13.917  14.028  14.610
  113PROX    C323411  13.896  14.234  14.552
  113PROX   H3123412  14.004  14.255  14.539
  113PROX   H3223413  13.842  14.294  14.475
  113PROX   H3323414  13.866  14.266  14.654
  114PROX    O123415  13.890  14.047  14.405
  114PROX    C123416  13.881  13.906  14.374
  114PROX   H1123417  13.791  13.852  14.413
  114PROX   H1323418  13.885  13.918  14.264
  114PROX    C223419  14.007  13.826  14.413
  114PROX   H2123420  14.017  13.807  14.522
  114PROX    C323421  14.133  13.902  14.372
  114PROX   H3123422  14.128  13.920  14.263
  114PROX   H3223423  14.149  13.996  14.430
  114PROX   H3323424  14.218  13.832  14.383
  115PROX    O123425  14.008  13.712  14.338
  115PROX    C123426  14.072  13.604  14.411
  115PROX   H1123427  14.135  13.646  14.492
  115PROX   H1323428  13.989  13.547  14.459
  115PROX    C223429  14.165  13.507  14.330
  115PROX   H2123430  14.204  13.565  14.244
  115PROX    C323431  14.109  13.376  14.274
  115PROX   H3123432  14.037  13.420  14.202
  115PROX   H3223433  14.192  13.323  14.221
  115PROX   H3323434  14.068  13.315  14.357
  116PROX    O123435  14.271  13.466  14.416
  116PROX    C123436  14.217  13.384  14.526
  116PROX   H1123437  14.117  13.410  14.568
  116PROX   H1323438  14.215  13.276  14.502
  116PROX    C223439  14.318  13.389  14.635
  116PROX   H2123440  14.422  13.387  14.596
  116PROX    C323441  14.301  13.269  14.734
  116PROX   H3123442  14.362  13.288  14.824
  116PROX   H3223443  14.194  13.261  14.764
  116PROX   H3323444  14.328  13.169  14.693
  117PROX    O123445  14.286  13.509  14.703
  117PROX    C123446  14.387  13.557  14.783
  117PROX   H1123447  14.407  13.497  14.875
  117PROX   H1323448  14.488  13.559  14.737
  117PROX    C223449  14.348  13.702  14.824
  117PROX   H2123450  14.251  13.699  14.877
  117PROX    C323451  14.343  13.798  14.709
  117PROX   H3123452  14.308  13.901  14.728
  117PROX   H3223453  14.450  13.792  14.679
  117PROX   H3323454  14.295  13.751  14.620
  118PROX    O123455  14.452  13.741  14.915
  118PROX    C123456  14.417  13.861  14.991
  118PROX   H1123457  14.339  13.928  14.951
  118PROX   H1323458  14.381  13.834  15.093
  118PROX    C223459  14.552  13.937  15.017
  118PROX   H2123460  14.583  13.961  14.913
  118PROX    C323461  14.652  13.858  15.102
  118PROX   H3123462  14.698  13.771  15.051
  118PROX   H3223463  14.743  13.917  15.130
  118PROX   H3323464  14.594  13.829  15.192
  119PROX    O123465  14.515  14.060  15.073
  119PROX    C123466  14.459  14.055  15.204
  119PROX   H1123467  14.358  14.009  15.195
  119PROX   H1323468  14.519  13.997  15.277
  119PROX    C223469  14.436  14.191  15.272
  119PROX   H2123470  14.526  14.254  15.255
  119PROX    C323471  14.423  14.175  15.423
  119PROX   H3123472  14.323  14.130  15.440
  119PROX   H3223473  14.516  14.126  15.460
  119PROX   H3323474  14.417  14.273  15.475
  120PROX    O123475  14.312  14.256  15.236
  120PROX    C123476  14.296  14.298  15.099
  120PROX   H1123477  14.336  14.225  15.026
  120PROX   H1323478  14.187  14.287  15.080
  120PROX    C223479  14.346  14.439  15.073
  120PROX   H2123480  14.456  14.453  15.072
  120PROX    C323481  14.290  14.537  15.178
  120PROX   H3123482  14.342  14.523  15.275
  120PROX   H3223483  14.299  14.644  15.151
  120PROX   H3323484  14.183  14.513  15.195
  121PROX    O123485  14.291  14.487  14.951
  121PROX    C123486  14.337  14.427  14.835
  121PROX   H1123487  14.448  14.432  14.835
  121PROX   H1323488  14.302  14.322  14.839
  121PROX    C223489  14.259  14.490  14.712
  121PROX   H2123490  14.284  14.598  14.716
  121PROX    C323491  14.106  14.460  14.717
  121PROX   H3123492  14.097  14.350  14.717
  121PROX   H3223493  14.056  14.493  14.811
  121PROX   H3323494  14.058  14.504  14.627
  122PROX    O123495  14.316  14.433  14.593
  122PROX    C123496  14.324  14.533  14.486
  122PROX   H1123497  14.228  14.590  14.486
  122PROX   H1323498  14.401  14.607  14.516
  122PROX    C223499  14.354  14.478  14.346
  122PROX   H2123500  14.442  14.411  14.360
  122PROX    C323501  14.405  14.596  14.255
  122PROX   H3123502  14.313  14.657  14.238
  122PROX   H3223503  14.483  14.652  14.311
  122PROX   H3323504  14.438  14.553  14.158
  123PROX    O123505  14.245  14.404  14.292
  123PROX    C123506  14.291  14.313  14.185
  123PROX   H1123507  14.314  14.370  14.092
  123PROX   H1323508  14.382  14.260  14.221
  123PROX    C223509  14.194  14.197  14.160
  123PROX   H2123510  14.160  14.152  14.256
  123PROX    C323511  14.254  14.075  14.089
  123PROX   H3123512  14.315  14.119  14.006
  123PROX   H3223513  14.344  14.032  14.138
  123PROX   H3323514  14.175  14.006  14.054
  124PROX    O123515  14.082  14.241  14.079
  124PROX    C123516  13.986  14.305  14.159
  124PROX   H1123517  13.965  14.238  14.246
  124PROX   H1323518  14.021  14.398  14.209
  124PROX    C223519  13.855  14.336  14.081
  124PROX   H2123520  13.817  14.255  14.016
  124PROX    C323521  13.858  14.447  13.969
  124PROX   H3123522  13.764  14.430  13.912
  124PROX   H3223523  13.861  14.549  14.012
  124PROX   H3323524  13.942  14.432  13.899
  125PROX    O123525  13.759  14.385  14.171
  125PROX    C123526  13.698  14.282  14.240
  125PROX   H1123527  13.766  14.195  14.252
  125PROX   H1323528  13.688  14.317  14.345
  125PROX    C223529  13.564  14.247  14.173
  125PROX   H2123530  13.583  14.204  14.072
  125PROX    C323531  13.474  14.365  14.153
  125PROX   H3123532  13.530  14.438  14.091
  125PROX   H3223533  13.387  14.334  14.091
  125PROX   H3323534  13.451  14.420  14.247
  126PROX    O123535  13.493  14.151  14.241
  126PROX    C123536  13.554  14.022  14.242
  126PROX   H1123537  13.589  14.003  14.138
  126PROX   H1323538  13.646  14.028  14.304
  126PROX    C223539  13.462  13.897  14.286
  126PROX   H2123540  13.389  13.890  14.204
  126PROX    C323541  13.386  13.920  14.420
  126PROX   H3123542  13.357  13.823  14.466
  126PROX   H3223543  13.445  13.971  14.499
  126PROX   H3323544  13.291  13.974  14.402
  127PROX    O123545  13.541  13.780  14.281
  127PROX    C123546  13.560  13.736  14.155
  127PROX   H1123547  13.462  13.707  14.110
  127PROX   H1323548  13.603  13.816  14.091
  127PROX    C223549  13.657  13.615  14.153
  127PROX   H2123550  13.748  13.661  14.197
  127PROX    C323551  13.703  13.565  14.010
  127PROX   H3123552  13.807  13.524  14.013
  127PROX   H3223553  13.636  13.492  13.960
  127PROX   H3323554  13.721  13.659  13.953
  128PROX    O123555  13.600  13.503  14.226
  128PROX    C123556  13.706  13.439  14.298
  128PROX   H1123557  13.764  13.371  14.233
  128PROX   H1323558  13.774  13.511  14.349
  128PROX    C223559  13.643  13.354  14.419
  128PROX   H2123560  13.544  13.395  14.449
  128PROX    C323561  13.739  13.359  14.541
  128PROX   H3123562  13.761  13.462  14.576
  128PROX   H3223563  13.685  13.301  14.620
  128PROX   H3323564  13.840  13.316  14.525
  129PROX    O123565  13.641  13.215  14.385
  129PROX    C123566  13.540  13.180  14.298
  129PROX   H1123567  13.451  13.235  14.334
  129PROX   H1323568  13.571  13.212  14.196
  129PROX    C223569  13.533  13.028  14.295
  129PROX   H2123570  13.633  12.981  14.282
  129PROX    C323571  13.446  12.991  14.184
  129PROX   H3123572  13.424  12.883  14.194
  129PROX   H3223573  13.341  13.030  14.179
  129PROX   H3323574  13.479  13.019  14.082
  130PROX    O123575  13.462  12.978  14.408
  130PROX    C123576  13.532  12.993  14.527
  130PROX   H1123577  13.533  12.896  14.582
  130PROX   H1323578  13.637  13.028  14.523
  130PROX    C223579  13.450  13.093  14.617
  130PROX   H2123580  13.439  13.192  14.567
  130PROX    C323581  13.520  13.099  14.751
  130PROX   H3123582  13.621  13.141  14.728
  130PROX   H3223583  13.477  13.168  14.826
  130PROX   H3323584  13.533  12.996  14.791
  131PROX    O123585  13.320  13.042  14.640
  131PROX    C123586  13.237  13.152  14.677
  131PROX   H1123587  13.177  13.120  14.765
  131PROX   H1323588  13.286  13.251  14.680
  131PROX    C223589  13.127  13.177  14.565
  131PROX   H2123590  13.082  13.076  14.550
  131PROX    C323591  13.172  13.228  14.426
  131PROX   H3123592  13.245  13.159  14.380
  131PROX   H3223593  13.078  13.236  14.368
  131PROX   H3323594  13.216  13.329  14.437
  132PROX    O123595  13.034  13.274  14.616
  132PROX    C123596  12.905  13.229  14.642
  132PROX   H1123597  12.843  13.322  14.636
  132PROX   H1323598  12.875  13.155  14.566
  132PROX    C223599  12.879  13.162  14.776
  132PROX   H2123600  12.968  13.098  14.794
  132PROX    C323601  12.742  13.083  14.784
  132PROX   H3123602  12.750  13.007  14.703
  132PROX   H3223603  12.735  13.028  14.880
  132PROX   H3323604  12.648  13.136  14.757
  133PROX    O123605  12.877  13.262  14.876
  133PROX    C123606  12.907  13.220  15.008
  133PROX   H1123607  12.837  13.280  15.069
  133PROX   H1323608  12.871  13.116  15.020
  133PROX    C223609  13.062  13.237  15.038
  133PROX   H2123610  13.089  13.267  15.141
  133PROX    C323611  13.120  13.346  14.947
  133PROX   H3123612  13.225  13.366  14.978
  133PROX   H3223613  13.123  13.308  14.842
  133PROX   H3323614  13.064  13.441  14.962
  134PROX    O123615  13.126  13.111  15.013
  134PROX    C123616  13.258  13.107  15.072
  134PROX   H1123617  13.320  13.188  15.028
  134PROX   H1323618  13.254  13.137  15.178
  134PROX    C223619  13.336  12.972  15.068
  134PROX   H2123620  13.377  12.947  14.967
  134PROX    C323621  13.230  12.864  15.107
  134PROX   H3123622  13.272  12.786  15.174
  134PROX   H3223623  13.143  12.906  15.161
  134PROX   H3323624  13.201  12.808  15.016
  135PROX    O123625  13.435  12.985  15.170
  135PROX    C123626  13.534  12.881  15.157
  135PROX   H1123627  13.558  12.842  15.258
  135PROX   H1323628  13.493  12.796  15.098
  135PROX    C223629  13.660  12.918  15.075
  135PROX   H2123630  13.616  12.937  14.975
  135PROX    C323631  13.750  12.798  15.067
  135PROX   H3123632  13.857  12.823  15.049
  135PROX   H3223633  13.730  12.737  15.157
  135PROX   H3323634  13.714  12.741  14.979
  136PROX    O123635  13.745  13.026  15.127
  136PROX    C123636  13.755  13.024  15.276
  136PROX   H1123637  13.668  13.083  15.310
  136PROX   H1323638  13.751  12.920  15.316
  136PROX    C223639  13.883  13.085  15.339
  136PROX   H2123640  13.887  13.192  15.309
  136PROX    C323641  14.016  13.012  15.295
  136PROX   H3123642  14.035  13.021  15.186
  136PROX   H3223643  14.106  13.061  15.338
  136PROX   H3323644  14.015  12.902  15.314
  137PROX    O123645  13.887  13.070  15.480
  137PROX    C123646  13.792  13.150  15.541
  137PROX   H1123647  13.725  13.203  15.470
  137PROX   H1323648  13.726  13.089  15.606
  137PROX    C223649  13.857  13.256  15.634
  137PROX   H2123650  13.927  13.202  15.702
  137PROX    C323651  13.768  13.335  15.725
  137PROX   H3123652  13.819  13.408  15.792
  137PROX   H3223653  13.705  13.391  15.654
  137PROX   H3323654  13.705  13.264  15.783
  138PROX    O123655  13.931  13.347  15.547
  138PROX    C123656  14.029  13.418  15.623
  138PROX   H1123657  13.993  13.522  15.639
  138PROX   H1323658  14.053  13.375  15.722
  138PROX    C223659  14.161  13.433  15.534
  138PROX   H2123660  14.139  13.477  15.434
  138PROX    C323661  14.222  13.290  15.520
  138PROX   H3123662  14.138  13.224  15.489
  138PROX   H3223663  14.295  13.283  15.436
  138PROX   H3323664  14.261  13.251  15.617
  139PROX    O123665  14.253  13.519  15.602
  139PROX    C123666  14.232  13.653  15.578
  139PROX   H1123667  14.125  13.678  15.588
  139PROX   H1323668  14.267  13.718  15.661
  139PROX    C223669  14.282  13.692  15.442
  139PROX   H2123670  14.256  13.621  15.360
  139PROX    C323671  14.440  13.700  15.437
  139PROX   H3123672  14.482  13.600  15.458
  139PROX   H3223673  14.475  13.726  15.335
  139PROX   H3323674  14.480  13.780  15.503
  140PROX    O123675  14.218  13.816  15.407
  140PROX    C123676  14.096  13.796  15.331
  140PROX   H1123677  14.125  13.726  15.249
  140PROX   H1323678  14.025  13.741  15.396
  140PROX    C223679  14.052  13.928  15.265
  140PROX   H2123680  14.142  13.981  15.229
  140PROX    C323681  13.984  14.027  15.351
  140PROX   H3123682  13.923  14.094  15.286
  140PROX   H3223683  13.902  13.985  15.414
  140PROX   H3323684  14.050  14.081  15.422
  141PROX    O123685  13.984  13.898  15.147
  141PROX    C123686  13.985  13.998  15.050
  141PROX   H1123687  13.881  14.034  15.033
  141PROX   H1323688  14.042  14.090  15.076
  141PROX    C223689  14.049  13.973  14.906
  141PROX   H2123690  14.145  13.918  14.906
  141PROX    C323691  14.084  14.104  14.831
  141PROX   H3123692  14.142  14.178  14.890
  141PROX   H3223693  14.133  14.089  14.732
  141PROX   H3323694  13.997  14.167  14.802
  142PROX    O123695  13.952  13.912  14.829
  142PROX    C123696  13.918  13.782  14.873
  142PROX   H1123697  13.998  13.739  14.938
  142PROX   H1323698  13.823  13.790  14.930
  142PROX    C223699  13.905  13.683  14.757
  142PROX   H2123700  14.006  13.691  14.711
  142PROX    C323701  13.787  13.720  14.673
  142PROX   H3123702  13.800  13.665  14.577
  142PROX   H3223703  13.688  13.704  14.720
  142PROX   H3323704  13.799  13.824  14.637
  143PROX    O123705  13.891  13.544  14.805
  143PROX    C123706  14.006  13.481  14.872
  143PROX   H1123707  14.046  13.403  14.804
  143PROX   H1323708  14.089  13.556  14.870
  143PROX    C223709  13.988  13.432  15.018
  143PROX   H2123710  13.928  13.515  15.063
  143PROX    C323711  14.116  13.418  15.096
  143PROX   H3123712  14.148  13.524  15.106
  143PROX   H3223713  14.099  13.384  15.200
  143PROX   H3323714  14.203  13.372  15.044
  144PROX    O123715  13.919  13.310  15.025
  144PROX    C123716  13.771  13.320  15.007
  144PROX   H1123717  13.750  13.382  14.918
  144PROX   H1323718  13.741  13.215  14.985
  144PROX    C223719  13.690  13.358  15.131
  144PROX   H2123720  13.734  13.291  15.207
  144PROX    C323721  13.538  13.353  15.125
  144PROX   H3123722  13.477  13.390  15.210
  144PROX   H3223723  13.519  13.403  15.028
  144PROX   H3323724  13.508  13.246  15.118
  145PROX    O123725  13.721  13.494  15.159
  145PROX    C123726  13.760  13.510  15.297
  145PROX   H1123727  13.829  13.434  15.340
  145PROX   H1323728  13.815  13.606  15.301
  145PROX    C223729  13.635  13.526  15.386
  145PROX   H2123730  13.554  13.568  15.324
  145PROX    C323731  13.671  13.628  15.492
  145PROX   H3123732  13.588  13.656  15.560
  145PROX   H3223733  13.751  13.577  15.549
  145PROX   H3323734  13.701  13.725  15.447
  146PROX    O123735  13.588  13.407  15.445
  146PROX    C123736  13.451  13.411  15.490
  146PROX   H1123737  13.433  13.512  15.532
  146PROX   H1323738  13.371  13.407  15.412
  146PROX    C223739  13.422  13.308  15.599
  146PROX   H2123740  13.516  13.298  15.658
  146PROX    C323741  13.368  13.170  15.559
  146PROX   H3123742  13.374  13.097  15.642
  146PROX   H3223743  13.266  13.185  15.518
  146PROX   H3323744  13.432  13.134  15.475
  147PROX    O123745  13.322  13.365  15.680
  147PROX    C123746  13.321  13.325  15.813
  147PROX   H1123747  13.280  13.223  15.829
  147PROX   H1323748  13.424  13.325  15.854
  147PROX    C223749  13.237  13.416  15.904
  147PROX   H2123750  13.235  13.511  15.847
  147PROX    C323751  13.293  13.451  16.041
  147PROX   H3123752  13.271  13.372  16.115
  147PROX   H3223753  13.400  13.481  16.033
  147PROX   H3323754  13.250  13.545  16.083
  148PROX    O123755  13.103  13.363  15.917
  148PROX    C123756  13.024  13.397  15.803
  148PROX   H1123757  13.001  13.505  15.794
  148PROX   H1323758  13.069  13.355  15.710
  148PROX    C223759  12.883  13.335  15.821
  148PROX   H2123760  12.840  13.383  15.911
  148PROX    C323761  12.890  13.185  15.845
  148PROX   H3123762  12.969  13.141  15.780
  148PROX   H3223763  12.897  13.154  15.952
  148PROX   H3323764  12.794  13.137  15.819
  149PROX    O123765  12.807  13.377  15.710
  149PROX    C123766  12.670  13.367  15.729
  149PROX   H1123767  12.620  13.360  15.630
  149PROX   H1323768  12.639  13.275  15.783
  149PROX    C223769  12.605  13.487  15.798
  149PROX   H2123770  12.633  13.478  15.905
  149PROX    C323771  12.451  13.486  15.800
  149PROX   H3123772  12.406  13.525  15.706
  149PROX   H3223773  12.415  13.386  15.834
  149PROX   H3323774  12.421  13.567  15.869
  150PROX    O123775  12.645  13.610  15.745
  150PROX    C123776  12.745  13.679  15.828
  150PROX   H1123777  12.705  13.677  15.932
  150PROX   H1323778  12.837  13.618  15.827
  150PROX    C223779  12.778  13.814  15.764
  150PROX   H2123780  12.809  13.790  15.660
  150PROX    C323781  12.881  13.900  15.832
  150PROX   H3123782  12.917  13.980  15.765
  150PROX   H3223783  12.842  13.956  15.920
  150PROX   H3323784  12.969  13.842  15.865
  151PROX    O123785  12.662  13.901  15.766
  151PROX    C123786  12.620  13.942  15.630
  151PROX   H1123787  12.635  13.865  15.551
  151PROX   H1323788  12.511  13.960  15.623
  151PROX    C223789  12.685  14.075  15.586
  151PROX   H2123790  12.677  14.151  15.666
  151PROX    C323791  12.617  14.129  15.461
  151PROX   H3123792  12.509  14.149  15.477
  151PROX   H3223793  12.651  14.223  15.412
  151PROX   H3323794  12.622  14.046  15.387
  152PROX    O123795  12.824  14.049  15.545
  152PROX    C123796  12.908  14.164  15.540
  152PROX   H1123797  12.879  14.221  15.450
  152PROX   H1323798  12.885  14.233  15.624
  152PROX    C223799  13.058  14.119  15.544
  152PROX   H2123800  13.085  14.081  15.644
  152PROX    C323801  13.150  14.240  15.530
  152PROX   H3123802  13.124  14.305  15.444
  152PROX   H3223803  13.147  14.316  15.611
  152PROX   H3323804  13.257  14.212  15.520
  153PROX    O123805  13.088  14.035  15.431
  153PROX    C123806  13.195  13.947  15.458
  153PROX   H1123807  13.241  13.918  15.361
  153PROX   H1323808  13.271  14.002  15.518
  153PROX    C223809  13.152  13.827  15.541
  153PROX   H2123810  13.058  13.839  15.598
  153PROX    C323811  13.262  13.776  15.634
  153PROX   H3123812  13.225  13.688  15.691
  153PROX   H3223813  13.350  13.726  15.588
  153PROX   H3323814  13.300  13.856  15.702
  154PROX    O123815  13.127  13.715  15.447
  154PROX    C123816  13.057  13.603  15.507
  154PROX   H1123817  13.130  13.521  15.521
  154PROX   H1323818  13.005  13.639  15.598
  154PROX    C223819  12.941  13.548  15.414
  154PROX   H2123820  12.895  13.464  15.471
  154PROX    C323821  12.983  13.495  15.278
  154PROX   H3123822  13.093  13.478  15.273
  154PROX   H3223823  12.934  13.396  15.272
  154PROX   H3323824  12.957  13.566  15.196
  155PROX    O123825  12.834  13.639  15.389
  155PROX    C123826  12.854  13.760  15.314
  155PROX   H1123827  12.878  13.843  15.384
  155PROX   H1323828  12.941  13.756  15.245
  155PROX    C223829  12.730  13.807  15.236
  155PROX   H2123830  12.644  13.815  15.307
  155PROX    C323831  12.695  13.708  15.121
  155PROX   H3123832  12.779  13.651  15.075
  155PROX   H3223833  12.635  13.625  15.163
  155PROX   H3323834  12.633  13.769  15.051
  156PROX    O123835  12.746  13.937  15.188
  156PROX    C123836  12.871  13.966  15.126
  156PROX   H1123837  12.932  14.003  15.212
  156PROX   H1323838  12.916  13.880  15.074
  156PROX    C223839  12.861  14.084  15.026
  156PROX   H2123840  12.963  14.081  14.982
  156PROX    C323841  12.828  14.212  15.098
  156PROX   H3123842  12.915  14.265  15.142
  156PROX   H3223843  12.781  14.282  15.025
  156PROX   H3323844  12.762  14.186  15.183
  157PROX    O123845  12.753  14.071  14.940
  157PROX    C123846  12.779  13.972  14.844
  157PROX   H1123847  12.873  14.003  14.795
  157PROX   H1323848  12.786  13.878  14.903
  157PROX    C223849  12.657  13.960  14.751
  157PROX   H2123850  12.629  14.063  14.720
  157PROX    C323851  12.536  13.895  14.825
  157PROX   H3123852  12.497  13.964  14.903
  157PROX   H3223853  12.453  13.870  14.756
  157PROX   H3323854  12.573  13.802  14.874
  158PROX    O123855  12.683  13.873  14.645
  158PROX    C123856  12.746  13.929  14.539
  158PROX   H1123857  12.682  14.006  14.492
  158PROX   H1323858  12.837  13.985  14.571
  158PROX    C223859  12.785  13.826  14.431
  158PROX   H2123860  12.846  13.876  14.353
  158PROX    C323861  12.652  13.769  14.373
  158PROX   H3123862  12.681  13.691  14.299
  158PROX   H3223863  12.600  13.724  14.460
  158PROX   H3323864  12.597  13.853  14.325
  159PROX    O123865  12.866  13.726  14.497
  159PROX    C123866  12.996  13.763  14.527
  159PROX   H1123867  13.057  13.768  14.434
  159PROX   H1323868  12.993  13.870  14.556
  159PROX    C223869  13.057  13.661  14.628
  159PROX   H2123870  13.045  13.566  14.573
  159PROX    C323871  12.984  13.664  14.761
  159PROX   H3123872  12.982  13.768  14.800
  159PROX   H3223873  12.881  13.631  14.734
  159PROX   H3323874  13.032  13.595  14.834
  160PROX    O123875  13.197  13.693  14.648
  160PROX    C123876  13.272  13.575  14.675
  160PROX   H1123877  13.202  13.501  14.718
  160PROX   H1323878  13.304  13.535  14.577
  160PROX    C223879  13.390  13.606  14.766
  160PROX   H2123880  13.444  13.698  14.736
  160PROX    C323881  13.481  13.485  14.777
  160PROX   H3123882  13.568  13.504  14.844
  160PROX   H3223883  13.427  13.397  14.817
  160PROX   H3323884  13.527  13.462  14.678
  161PROX    O123885  13.333  13.636  14.894
  161PROX    C123886  13.400  13.737  14.961
  161PROX   H1123887  13.505  13.701  14.961
  161PROX   H1323888  13.378  13.826  14.898
  161PROX    C223889  13.355  13.755  15.103
  161PROX   H2123890  13.405  13.674  15.162
  161PROX    C323891  13.199  13.740  15.119
  161PROX   H3123892  13.153  13.773  15.023
  161PROX   H3223893  13.178  13.634  15.147
  161PROX   H3323894  13.161  13.812  15.195
  162PROX    O123895  13.397  13.874  15.162
  162PROX    C123896  13.490  13.854  15.268
  162PROX   H1123897  13.437  13.802  15.350
  162PROX   H1323898  13.570  13.783  15.238
  162PROX    C223899  13.548  13.981  15.329
  162PROX   H2123900  13.459  14.047  15.322
  162PROX    C323901  13.668  14.043  15.253
  162PROX   H3123902  13.745  13.968  15.225
  162PROX   H3223903  13.627  14.083  15.158
  162PROX   H3323904  13.706  14.131  15.309
  163PROX    O123905  13.575  13.961  15.464
  163PROX    C123906  13.588  14.079  15.546
  163PROX   H1123907  13.690  14.119  15.526
  163PROX   H1323908  13.515  14.155  15.510
  163PROX    C223909  13.575  14.065  15.698
  163PROX   H2123910  13.495  13.997  15.735
  163PROX    C323911  13.543  14.204  15.755
  163PROX   H3123912  13.442  14.240  15.726
  163PROX   H3223913  13.540  14.204  15.866
  163PROX   H3323914  13.623  14.277  15.731
  164PROX    O123915  13.698  14.031  15.757
  164PROX    C123916  13.727  13.890  15.743
  164PROX   H1123917  13.644  13.836  15.794
  164PROX   H1323918  13.727  13.876  15.632
  164PROX    C223919  13.866  13.860  15.798
  164PROX   H2123920  13.885  13.930  15.882
  164PROX    C323921  13.979  13.878  15.695
  164PROX   H3123922  14.081  13.886  15.739
  164PROX   H3223923  13.972  13.797  15.618
  164PROX   H3323924  13.960  13.976  15.646
  165PROX    O123925  13.859  13.723  15.838
  165PROX    C123926  13.848  13.703  15.980
  165PROX   H1123927  13.796  13.787  16.030
  165PROX   H1323928  13.797  13.609  16.009
  165PROX    C223929  13.998  13.692  16.028
  165PROX   H2123930  14.055  13.778  15.987
  165PROX    C323931  14.058  13.565  15.974
  165PROX   H3123932  13.993  13.480  16.003
  165PROX   H3223933  14.069  13.579  15.864
  165PROX   H3323934  14.161  13.542  16.009
  166ETHO    O123935  14.011  13.678  16.169
  166ETHO    C123936  13.999  13.802  16.236
  166ETHO   H1123937  13.907  13.807  16.299
  166ETHO   H1323938  13.983  13.879  16.157
  166ETHO    C223939  14.120  13.870  16.311
  166ETHO   H2123940  14.072  13.970  16.313
  166ETHO   H2323941  14.208  13.873  16.244
  167ETHO    O123942  14.158  13.825  16.437
  167ETHO    C123943  14.240  13.917  16.510
  167ETHO   H1123944  14.170  14.000  16.533
  167ETHO   H1323945  14.270  13.866  16.604
  167ETHO    C223946  14.381  13.952  16.441
  167ETHO   H2123947  14.364  14.001  16.343
  167ETHO   H2323948  14.429  13.854  16.419
  168ETHO    O123949  14.463  14.035  16.524
  168ETHO    C123950  14.584  14.083  16.458
  168ETHO   H1123951  14.562  14.134  16.362
  168ETHO   H1323952  14.653  13.997  16.443
  168ETHO    C223953  14.654  14.176  16.554
  168ETHO   H2123954  14.586  14.259  16.584
  168ETHO   H2323955  14.740  14.212  16.494
  169ETHO    O123956  14.689  14.102  16.668
  169ETHO    C123957  14.777  14.169  16.759
  169ETHO   H1123958  14.874  14.202  16.717
  169ETHO   H1323959  14.720  14.262  16.781
  169ETHO    C223960  14.792  14.096  16.888
  169ETHO   H2123961  14.881  14.035  16.862
  169ETHO   H2323962  14.698  14.039  16.904
  170ETHO    O123963  14.805  14.187  17.000
  170ETHO    C123964  14.889  14.142  17.107
  170ETHO   H1123965  14.997  14.130  17.083
  170ETHO   H1323966  14.861  14.040  17.139
  170ETHO    C223967  14.885  14.235  17.226
  170ETHO   H2123968  14.884  14.187  17.326
  170ETHO   H2323969  14.791  14.295  17.219
  171ETHO    O123970  14.997  14.326  17.221
  171ETHO    C123971  14.999  14.417  17.113
  171ETHO   H1123972  15.043  14.359  17.030
  171ETHO   H1323973  14.893  14.450  17.101
  171ETHO    C223974  15.084  14.545  17.125
  171ETHO   H2123975  15.092  14.572  17.017
  171ETHO   H2323976  15.186  14.529  17.166
  172ETHO    O123977  15.024  14.647  17.201
  172ETHO    C123978  15.117  14.735  17.261
  172ETHO   H1123979  15.189  14.755  17.179
  172ETHO   H1323980  15.162  14.682  17.347
  172ETHO    C223981  15.043  14.857  17.316
  172ETHO   H2123982  14.959  14.872  17.245
  172ETHO   H2323983  15.103  14.951  17.318
  173ETHO    O123984  14.996  14.842  17.454
  173ETHO    C123985  15.096  14.832  17.546
  173ETHO   H1123986  15.149  14.735  17.546
  173ETHO   H1323987  15.166  14.914  17.520
  173ETHO    C223988  15.040  14.843  17.693
  173ETHO   H2123989  14.967  14.762  17.713
  173ETHO   H2323990  15.126  14.820  17.759
  174ETHO    O123991  14.992  14.977  17.727
  174ETHO    C123992  14.917  14.975  17.847
  174ETHO   H1123993  14.975  14.923  17.926
  174ETHO   H1323994  14.931  15.076  17.889
  174ETHO    C223995  14.772  14.935  17.842
  174ETHO   H2123996  14.727  14.935  17.944
  174ETHO   H2323997  14.770  14.830  17.804
  175ETHO    O123998  14.695  15.025  17.765
  175ETHO    C123999  14.558  14.994  17.751
  175ETHO   H1124000  14.543  14.902  17.692
  175ETHO   H1324001  14.521  14.957  17.849
  175ETHO    C224002  14.476  15.114  17.697
  175ETHO   H2124003  14.379  15.071  17.666
  175ETHO   H2324004  14.534  15.164  17.616
  176ETHO    O124005  14.448  15.205  17.792
  176ETHO    C124006  14.357  15.295  17.727
  176ETHO   H1124007  14.409  15.367  17.660
  176ETHO   H1324008  14.291  15.244  17.654
  176ETHO    C224009  14.275  15.378  17.828
  176ETHO   H2124010  14.218  15.305  17.890
  176ETHO   H2324011  14.214  15.451  17.771
  177ETHO    O124012  14.346  15.457  17.922
  177ETHO    C124013  14.261  15.516  18.019
  177ETHO   H1124014  14.175  15.546  17.955
  177ETHO   H1324015  14.314  15.609  18.049
  177ETHO    C224016  14.220  15.430  18.135
  177ETHO   H2124017  14.210  15.325  18.099
  177ETHO   H2324018  14.126  15.458  18.187
  178ETHO    O124019  14.320  15.445  18.233
  178ETHO    C124020  14.316  15.344  18.332
  178ETHO   H1124021  14.212  15.317  18.359
  178ETHO   H1324022  14.368  15.257  18.288
  178ETHO    C224023  14.394  15.394  18.457
  178ETHO   H2124024  14.490  15.428  18.413
  178ETHO   H2324025  14.404  15.310  18.528
  179ETHO    O124026  14.313  15.506  18.512
  179ETHO    C124027  14.377  15.555  18.632
  179ETHO   H1124028  14.357  15.664  18.627
  179ETHO   H1324029  14.488  15.562  18.625
  179ETHO    C224030  14.328  15.497  18.756
  179ETHO   H2124031  14.355  15.390  18.765
  179ETHO   H2324032  14.220  15.516  18.771
  180ETHO    O124033  14.392  15.572  18.863
  180ETHO    C124034  14.470  15.487  18.954
  180ETHO   H1124035  14.408  15.409  19.004
  180ETHO   H1324036  14.542  15.433  18.890
  180ETHO    C224037  14.532  15.571  19.064
  180ETHO   H2124038  14.561  15.667  19.016
  180ETHO   H2324039  14.627  15.528  19.102
  181ETHO    O124040  14.440  15.602  19.171
  181ETHO    C124041  14.510  15.614  19.297
  181ETHO   H1124042  14.596  15.684  19.282
  181ETHO   H1324043  14.554  15.515  19.322
  181ETHO    C224044  14.425  15.654  19.417
  181ETHO   H2124045  14.354  15.731  19.380
  181ETHO   H2324046  14.475  15.700  19.505
  182ETHO    O124047  14.347  15.543  19.460
  182ETHO    C124048  14.253  15.577  19.567
  182ETHO   H1124049  14.305  15.634  19.647
  182ETHO   H1324050  14.199  15.665  19.525
  182ETHO    C224051  14.175  15.453  19.625
  182ETHO   H2124052  14.111  15.505  19.700
  182ETHO   H2324053  14.247  15.384  19.674
  183ETHO    O124054  14.097  15.375  19.532
  183ETHO    C124055  14.054  15.260  19.602
  183ETHO   H1124056  13.991  15.282  19.692
  183ETHO   H1324057  14.148  15.206  19.624
  183ETHO    C224058  13.974  15.170  19.500
  183ETHO   H2124059  13.981  15.064  19.532
  183ETHO   H2324060  14.016  15.171  19.397
  184ETHO    O124061  13.836  15.194  19.494
  184ETHO    C124062  13.799  15.309  19.420
  184ETHO   H1124063  13.854  15.397  19.460
  184ETHO   H1324064  13.826  15.293  19.313
  184ETHO    C224065  13.650  15.337  19.434
  184ETHO   H2124066  13.597  15.240  19.429
  184ETHO   H2324067  13.616  15.389  19.341
  185ETHO    O124068  13.610  15.410  19.547
  185ETHO    C124069  13.464  15.415  19.561
  185ETHO   H1124070  13.408  15.442  19.469
  185ETHO   H1324071  13.426  15.315  19.591
  185ETHO    C224072  13.456  15.512  19.678
  185ETHO   H2124073  13.513  15.465  19.762
  185ETHO   H2324074  13.351  15.519  19.714
  186ETHO    O124075  13.516  15.644  19.651
  186ETHO    C124076  13.511  15.723  19.768
  186ETHO   H1124077  13.414  15.719  19.823
  186ETHO   H1324078  13.590  15.682  19.834
  186ETHO    C224079  13.548  15.873  19.745
  186ETHO   H2124080  13.471  15.927  19.686
  186ETHO   H2324081  13.648  15.874  19.697
  187ETHO    O124082  13.560  15.934  19.873
  187ETHO    C124083  13.571  16.074  19.862
  187ETHO   H1124084  13.673  16.097  19.824
  187ETHO   H1324085  13.504  16.111  19.781
  187ETHO    C224086  13.549  16.155  19.992
  187ETHO   H2124087  13.578  16.262  19.983
  187ETHO   H2324088  13.626  16.114  20.062
  188ETHO    O124089  13.407  16.142  20.029
  188ETHO    C124090  13.366  16.241  20.126
  188ETHO   H1124091  13.399  16.340  20.087
  188ETHO   H1324092  13.423  16.228  20.220
  188ETHO    C224093  13.222  16.208  20.143
  188ETHO   H2124094  13.183  16.270  20.227
  188ETHO   H2324095  13.206  16.102  20.174
  189ETHO    O124096  13.155  16.245  20.020
  189ETHO    C124097  13.042  16.159  20.008
  189ETHO   H1124098  13.006  16.163  19.904
  189ETHO   H1324099  13.091  16.060  20.013
  189ETHO    C224100  12.934  16.171  20.112
  189ETHO   H2124101  12.975  16.173  20.215
  189ETHO   H2324102  12.869  16.084  20.091
  190ETHO    O124103  12.857  16.287  20.086
  190ETHO    C124104  12.740  16.261  20.009
  190ETHO   H1124105  12.683  16.170  20.039
  190ETHO   H1324106  12.759  16.247  19.900
  190ETHO    C224107  12.642  16.377  20.011
  190ETHO   H2124108  12.617  16.420  20.110
  190ETHO   H2324109  12.558  16.319  19.965
  191ETHO    O124110  12.685  16.486  19.931
  191ETHO    C124111  12.592  16.595  19.940
  191ETHO   H1124112  12.492  16.556  19.911
  191ETHO   H1324113  12.598  16.631  20.045
  191ETHO    C224114  12.639  16.708  19.846
  191ETHO   H2124115  12.750  16.708  19.847
  191ETHO   H2324116  12.603  16.806  19.885
  192ETHO    O124117  12.593  16.685  19.714
  192ETHO    C124118  12.647  16.770  19.616
  192ETHO   H1124119  12.639  16.705  19.527
  192ETHO   H1324120  12.756  16.782  19.634
  192ETHO    C224121  12.585  16.909  19.590
  192ETHO   H2124122  12.484  16.903  19.544
  192ETHO   H2324123  12.653  16.959  19.517
  193ETHO    O124124  12.582  16.994  19.703
  193ETHO    C124125  12.542  17.129  19.679
  193ETHO   H1124126  12.608  17.148  19.591
  193ETHO   H1324127  12.434  17.135  19.654
  193ETHO    C224128  12.586  17.225  19.799
  193ETHO   H2124129  12.598  17.325  19.752
  193ETHO   H2324130  12.681  17.182  19.837
  194ETHO    O124131  12.479  17.223  19.897
  194ETHO    C124132  12.501  17.345  19.975
  194ETHO   H1124133  12.492  17.431  19.904
  194ETHO   H1324134  12.606  17.351  20.011
  194ETHO    C224135  12.396  17.362  20.092
  194ETHO   H2124136  12.295  17.358  20.046
  194ETHO   H2324137  12.405  17.468  20.124
  195ETHO    O124138  12.414  17.274  20.206
  195ETHO    C124139  12.545  17.266  20.266
  195ETHO   H1124140  12.612  17.222  20.190
  195ETHO   H1324141  12.583  17.369  20.283
  195ETHO    C224142  12.547  17.204  20.402
  195ETHO   H2124143  12.528  17.094  20.400
  195ETHO   H2324144  12.466  17.230  20.473
  196ETHO    O124145  12.686  17.215  20.448
  196ETHO    C124146  12.687  17.239  20.590
  196ETHO   H1124147  12.637  17.337  20.607
  196ETHO   H1324148  12.640  17.159  20.651
  196ETHO    C224149  12.828  17.254  20.641
  196ETHO   H2124150  12.827  17.284  20.748
  196ETHO   H2324151  12.874  17.330  20.574
  197ETHO    O124152  12.909  17.139  20.630
  197ETHO    C124153  12.892  17.046  20.735
  197ETHO   H1124154  12.908  17.101  20.830
  197ETHO   H1324155  12.794  16.994  20.745
  197ETHO    C224156  12.994  16.932  20.723
  197ETHO   H2124157  12.999  16.878  20.820
  197ETHO   H2324158  13.093  16.974  20.697
  198ETHO    O124159  12.951  16.838  20.620
  198ETHO    C124160  13.047  16.739  20.584
  198ETHO   H1124161  13.145  16.779  20.553
  198ETHO   H1324162  13.058  16.672  20.672
  198ETHO    C224163  13.002  16.647  20.465
  198ETHO   H2124164  12.912  16.586  20.490
  198ETHO   H2324165  13.072  16.561  20.473
  199ETHO    O124166  12.996  16.709  20.338
  199ETHO    C124167  12.971  16.603  20.240
  199ETHO   H1124168  12.872  16.559  20.265
  199ETHO   H1324169  13.044  16.520  20.249
  199ETHO    C224170  12.957  16.660  20.096
  199ETHO   H2124171  12.903  16.755  20.116
  199ETHO   H2324172  12.893  16.594  20.033
  200ETHO    O124173  13.072  16.683  20.015
  200ETHO    C124174  13.144  16.562  19.997
  200ETHO   H1124175  13.218  16.564  20.081
  200ETHO   H1324176  13.074  16.476  20.004
  200ETHO    C224177  13.214  16.570  19.859
  200ETHO   H2124178  13.272  16.475  19.859
  200ETHO   H2324179  13.284  16.656  19.861
  201ETHO    O124180  13.134  16.560  19.741
  201ETHO    C124181  13.205  16.580  19.617
  201ETHO   H1124182  13.311  16.552  19.637
  201ETHO   H1324183  13.199  16.683  19.575
  201ETHO    C224184  13.158  16.504  19.495
  201ETHO   H2124185  13.217  16.529  19.404
  201ETHO   H2324186  13.049  16.513  19.475
  202ETHO    O124187  13.186  16.366  19.517
  202ETHO    C124188  13.162  16.285  19.398
  202ETHO   H1124189  13.053  16.291  19.377
  202ETHO   H1324190  13.217  16.327  19.312
  202ETHO    C224191  13.213  16.142  19.421
  202ETHO   H2124192  13.173  16.078  19.339
  202ETHO   H2324193  13.177  16.113  19.522
  203ETHO    O124194  13.352  16.125  19.404
  203ETHO    C124195  13.393  15.990  19.424
  203ETHO   H1124196  13.342  15.922  19.352
  203ETHO   H1324197  13.357  15.959  19.525
  203ETHO    C224198  13.543  15.975  19.416
  203ETHO   H2124199  13.579  15.981  19.311
  203ETHO   H2324200  13.570  15.878  19.461
  204ETHO    O124201  13.603  16.084  19.493
  204ETHO    C124202  13.747  16.065  19.494
  204ETHO   H1124203  13.773  15.976  19.556
  204ETHO   H1324204  13.793  16.058  19.393
  204ETHO    C224205  13.827  16.184  19.558
  204ETHO   H2124206  13.926  16.150  19.595
  204ETHO   H2324207  13.774  16.228  19.645
  205ETHO    O124208  13.843  16.280  19.450
  205ETHO    C124209  13.890  16.409  19.492
  205ETHO   H1124210  13.992  16.396  19.534
  205ETHO   H1324211  13.822  16.455  19.567
  205ETHO    C224212  13.887  16.501  19.371
  205ETHO   H2124213  13.939  16.596  19.394
  205ETHO   H2324214  13.782  16.524  19.342
  206ETHO    O124215  13.961  16.438  19.265
  206ETHO    C124216  13.919  16.484  19.135
  206ETHO   H1124217  13.813  16.451  19.134
  206ETHO   H1324218  13.930  16.594  19.123
  206ETHO    C224219  14.004  16.422  19.028
  206ETHO   H2124220  14.015  16.311  19.029
  206ETHO   H2324221  13.962  16.456  18.930
  207ETHO    O124222  14.131  16.483  19.022
  207ETHO    C124223  14.210  16.446  18.910
  207ETHO   H1124224  14.173  16.504  18.823
  207ETHO   H1324225  14.206  16.336  18.899
  207ETHO    C224226  14.365  16.468  18.930
  207ETHO   H2124227  14.390  16.570  18.966
  207ETHO   H2324228  14.411  16.443  18.832
  208ETHO    O124229  14.418  16.382  19.034
  208ETHO    C124230  14.562  16.391  19.050
  208ETHO   H1124231  14.611  16.401  18.951
  208ETHO   H1324232  14.588  16.490  19.093
  208ETHO    C224233  14.622  16.278  19.136
  208ETHO   H2124234  14.560  16.266  19.228
  208ETHO   H2324235  14.729  16.290  19.161
  209ETHO    O124236  14.615  16.162  19.053
  209ETHO    C124237  14.633  16.035  19.124
  209ETHO   H1124238  14.725  16.033  19.187
  209ETHO   H1324239  14.660  15.955  19.052
  209ETHO    C224240  14.504  15.993  19.195
  209ETHO   H2124241  14.459  16.061  19.271
  209ETHO   H2324242  14.506  15.894  19.245
  210ETHO    O124243  14.421  15.974  19.083
  210ETHO    C124244  14.285  15.960  19.124
  210ETHO   H1124245  14.272  15.878  19.198
  210ETHO   H1324246  14.245  16.046  19.182
  210ETHO    C224247  14.187  15.930  19.012
  210ETHO   H2124248  14.097  15.876  19.048
  210ETHO   H2324249  14.234  15.859  18.940
  211ETHO    O124250  14.154  16.041  18.927
  211ETHO    C124251  14.056  15.992  18.831
  211ETHO   H1124252  14.106  15.922  18.761
  211ETHO   H1324253  13.967  15.948  18.880
  211ETHO    C224254  13.991  16.097  18.743
  211ETHO   H2124255  13.917  16.160  18.797
  211ETHO   H2324256  13.928  16.041  18.671
  212ETHO    O124257  14.079  16.185  18.668
  212ETHO    C124258  14.006  16.289  18.599
  212ETHO   H1124259  13.911  16.322  18.647
  212ETHO   H1324260  14.075  16.375  18.592
  212ETHO    C224261  13.969  16.241  18.457
  212ETHO   H2124262  13.912  16.323  18.407
  212ETHO   H2324263  13.894  16.159  18.461
  213ETHO    O124264  14.080  16.207  18.374
  213ETHO    C124265  14.034  16.150  18.248
  213ETHO   H1124266  13.960  16.069  18.259
  213ETHO   H1324267  13.983  16.227  18.186
  213ETHO    C224268  14.163  16.098  18.176
  213ETHO   H2124269  14.139  16.049  18.079
  213ETHO   H2324270  14.205  16.022  18.246
  214ETHO    O124271  14.269  16.194  18.151
  214ETHO    C124272  14.387  16.130  18.109
  214ETHO   H1124273  14.412  16.041  18.170
  214ETHO   H1324274  14.471  16.199  18.135
  214ETHO    C224275  14.387  16.099  17.955
  214ETHO   H2124276  14.288  16.068  17.913
  214ETHO   H2324277  14.468  16.026  17.933
  215ETHO    O124278  14.427  16.215  17.875
  215ETHO    C124279  14.480  16.183  17.746
  215ETHO   H1124280  14.567  16.115  17.757
  215ETHO   H1324281  14.393  16.133  17.698
  215ETHO    C224282  14.515  16.308  17.671
  215ETHO   H2124283  14.426  16.375  17.679
  215ETHO   H2324284  14.550  16.271  17.572
  216ETHO    O124285  14.625  16.362  17.733
  216ETHO    C124286  14.653  16.491  17.677
  216ETHO   H1124287  14.567  16.559  17.692
  216ETHO   H1324288  14.655  16.490  17.566
  216ETHO    C224289  14.784  16.535  17.737
  216ETHO   H2124290  14.784  16.542  17.848
  216ETHO   H2324291  14.799  16.641  17.708
  217ETHO    O124292  14.881  16.447  17.684
  217ETHO    C124293  15.007  16.488  17.748
  217ETHO   H1124294  15.041  16.590  17.718
  217ETHO   H1324295  14.990  16.480  17.857
  217ETHO    C224296  15.120  16.396  17.697
  217ETHO   H2124297  15.220  16.445  17.704
  217ETHO   H2324298  15.097  16.382  17.589
  218ETHO    O124299  15.115  16.263  17.743
  218ETHO    C124300  15.250  16.207  17.746
  218ETHO   H1124301  15.321  16.277  17.794
  218ETHO   H1324302  15.289  16.200  17.642
  218ETHO    C224303  15.249  16.069  17.804
  218ETHO   H2124304  15.351  16.028  17.793
  218ETHO   H2324305  15.172  16.006  17.754
  219ETHO    O124306  15.206  16.078  17.940
  219ETHO    C124307  15.316  16.088  18.029
  219ETHO   H1124308  15.338  15.983  18.061
  219ETHO   H1324309  15.404  16.128  17.975
  219ETHO    C224310  15.292  16.179  18.158
  219ETHO   H2124311  15.214  16.122  18.212
  219ETHO   H2324312  15.256  16.278  18.124
  220ETHO    O124313  15.409  16.189  18.237
  220ETHO    C124314  15.376  16.202  18.375
  220ETHO   H1124315  15.473  16.192  18.428
  220ETHO   H1324316  15.324  16.111  18.411
  220ETHO    C224317  15.307  16.326  18.422
  220ETHO   H2124318  15.379  16.405  18.392
  220ETHO   H2324319  15.305  16.325  18.533
  221ETHO    O124320  15.175  16.355  18.378
  221ETHO    C124321  15.131  16.485  18.420
  221ETHO   H1124322  15.109  16.478  18.529
  221ETHO   H1324323  15.215  16.555  18.399
  221ETHO    C224324  15.012  16.529  18.334
  221ETHO   H2124325  15.039  16.545  18.228
  221ETHO   H2324326  14.971  16.624  18.376
  222ETHO    O124327  14.904  16.432  18.355
  222ETHO    C124328  14.858  16.382  18.237
  222ETHO   H1124329  14.833  16.467  18.170
  222ETHO   H1324330  14.933  16.315  18.190
  222ETHO    C224331  14.722  16.316  18.255
  222ETHO   H2124332  14.728  16.252  18.346
  222ETHO   H2324333  14.696  16.243  18.176
  223ETHO    O124334  14.622  16.412  18.277
  223ETHO    C124335  14.515  16.361  18.352
  223ETHO   H1124336  14.428  16.421  18.319
  223ETHO   H1324337  14.498  16.252  18.338
  223ETHO    C224338  14.547  16.396  18.502
  223ETHO   H2124339  14.632  16.332  18.535
  223ETHO   H2324340  14.463  16.358  18.565
  224ETHO    O124341  14.580  16.529  18.519
  224ETHO    C124342  14.643  16.549  18.651
  224ETHO   H1124343  14.570  16.517  18.728
  224ETHO   H1324344  14.723  16.473  18.661
  224ETHO    C224345  14.690  16.687  18.686
  224ETHO   H2124346  14.721  16.748  18.598
  224ETHO   H2324347  14.774  16.679  18.757
  225ETHO    O124348  14.570  16.749  18.721
  225ETHO    C124349  14.593  16.852  18.811
  225ETHO   H1124350  14.647  16.934  18.758
  225ETHO   H1324351  14.649  16.810  18.897
  225ETHO    C224352  14.456  16.905  18.861
  225ETHO   H2124353  14.385  16.923  18.777
  225ETHO   H2324354  14.479  17.002  18.909
  226ETHO    O124355  14.402  16.840  18.975
  226ETHO    C124356  14.272  16.882  18.993
  226ETHO   H1124357  14.261  16.992  19.004
  226ETHO   H1324358  14.221  16.858  18.898
  226ETHO    C224359  14.214  16.799  19.112
  226ETHO   H2124360  14.258  16.698  19.100
  226ETHO   H2324361  14.104  16.793  19.119
  227ETHO    O124362  14.255  16.851  19.239
  227ETHO    C124363  14.358  16.769  19.294
  227ETHO   H1124364  14.460  16.790  19.254
  227ETHO   H1324365  14.334  16.661  19.287
  227ETHO    C224366  14.351  16.797  19.439
  227ETHO   H2124367  14.425  16.738  19.497
  227ETHO   H2324368  14.250  16.775  19.481
  228ETHO    O124369  14.377  16.938  19.463
  228ETHO    C124370  14.322  16.978  19.589
  228ETHO   H1124371  14.211  16.965  19.587
  228ETHO   H1324372  14.366  16.914  19.669
  228ETHO    C224373  14.353  17.124  19.625
  228ETHO   H2124374  14.303  17.140  19.722
  228ETHO   H2324375  14.306  17.186  19.546
  229ETHO    O124376  14.491  17.144  19.642
  229ETHO    C124377  14.521  17.284  19.649
  229ETHO   H1124378  14.455  17.339  19.720
  229ETHO   H1324379  14.502  17.330  19.549
  229ETHO    C224380  14.664  17.307  19.703
  229ETHO   H2124381  14.688  17.410  19.669
  229ETHO   H2324382  14.733  17.227  19.665
  230ETHO    O124383  14.674  17.316  19.851
  230ETHO    C124384  14.806  17.362  19.890
  230ETHO   H1124385  14.879  17.279  19.895
  230ETHO   H1324386  14.835  17.443  19.820
  230ETHO    C224387  14.775  17.421  20.030
  230ETHO   H2124388  14.738  17.347  20.104
  230ETHO   H2324389  14.689  17.491  20.020
  231ETHO    O124390  14.892  17.481  20.082
  231ETHO    C124391  14.863  17.572  20.187
  231ETHO   H1124392  14.837  17.515  20.278
  231ETHO   H1324393  14.782  17.640  20.151
  231ETHO    C224394  14.989  17.658  20.229
  231ETHO   H2124395  15.069  17.594  20.273
  231ETHO   H2324396  14.941  17.724  20.303
  232ETHO    O124397  15.027  17.737  20.114
  232ETHO    C124398  15.140  17.818  20.133
  232ETHO   H1124399  15.117  17.884  20.220
  232ETHO   H1324400  15.218  17.747  20.168
  232ETHO    C224401  15.181  17.909  20.009
  232ETHO   H2124402  15.202  17.837  19.927
  232ETHO   H2324403  15.270  17.972  20.029
  233ETHO    O124404  15.077  17.995  19.964
  233ETHO    C124405  15.105  18.055  19.837
  233ETHO   H1124406  15.209  18.094  19.843
  233ETHO   H1324407  15.098  17.986  19.750
  233ETHO    C224408  15.024  18.186  19.806
  233ETHO   H2124409  14.920  18.156  19.780
  233ETHO   H2324410  15.059  18.246  19.719
  234ETHO    O124411  15.020  18.279  19.905
  234ETHO    C124412  14.918  18.380  19.874
  234ETHO   H1124413  14.949  18.443  19.788
  234ETHO   H1324414  14.824  18.331  19.843
  234ETHO    C224415  14.882  18.480  19.994
  234ETHO   H2124416  14.821  18.556  19.942
  234ETHO   H2324417  14.976  18.528  20.030
  235ETHO    O124418  14.802  18.426  20.094
  235ETHO    C124419  14.748  18.517  20.188
  235ETHO   H1124420  14.832  18.546  20.255
  235ETHO   H1324421  14.708  18.613  20.149
  235ETHO    C224422  14.640  18.450  20.264
  235ETHO   H2124423  14.587  18.516  20.336
  235ETHO   H2324424  14.678  18.370  20.331
  236ETHO    O124425  14.539  18.377  20.191
  236ETHO    C124426  14.580  18.278  20.096
  236ETHO   H1124427  14.632  18.200  20.156
  236ETHO   H1324428  14.639  18.316  20.009
  236ETHO    C224429  14.457  18.204  20.046
  236ETHO   H2124430  14.490  18.136  19.964
  236ETHO   H2324431  14.387  18.282  20.009
  237ETHO    O124432  14.392  18.121  20.139
  237ETHO    C124433  14.251  18.124  20.098
  237ETHO   H1124434  14.196  18.219  20.108
  237ETHO   H1324435  14.234  18.092  19.993
  237ETHO    C224436  14.180  18.031  20.196
  237ETHO   H2124437  14.215  17.929  20.172
  237ETHO   H2324438  14.069  18.034  20.189
  238ETHO    O124439  14.209  18.051  20.336
  238ETHO    C124440  14.188  17.940  20.416
  238ETHO   H1124441  14.270  17.869  20.393
  238ETHO   H1324442  14.089  17.901  20.382
  238ETHO    C224443  14.179  17.977  20.561
  238ETHO   H2124444  14.106  17.906  20.607
  238ETHO   H2324445  14.150  18.084  20.572
  239ETHO    O124446  14.306  17.955  20.618
  239ETHO    C124447  14.321  18.033  20.741
  239ETHO   H1124448  14.381  18.122  20.713
  239ETHO   H1324449  14.225  18.067  20.785
  239ETHO    C224450  14.391  17.977  20.866
  239ETHO   H2124451  14.366  18.039  20.955
  239ETHO   H2324452  14.372  17.869  20.882
  240ETHO    O124453  14.527  17.994  20.867
  240ETHO    C124454  14.605  17.897  20.787
  240ETHO   H1124455  14.677  17.951  20.720
  240ETHO   H1324456  14.536  17.832  20.729
  240ETHO    C224457  14.700  17.794  20.865
  240ETHO   H2124458  14.729  17.700  20.814
  240ETHO   H2324459  14.643  17.765  20.956
  241ETHO    O124460  14.819  17.861  20.916
  241ETHO    C124461  14.932  17.844  20.831
  241ETHO   H1124462  14.961  17.738  20.811
  241ETHO   H1324463  14.895  17.883  20.734
  241ETHO    C224464  15.058  17.923  20.879
  241ETHO   H2124465  15.031  18.030  20.872
  241ETHO   H2324466  15.145  17.917  20.810
  242ETHO    O124467  15.095  17.898  21.014
  242ETHO    C124468  15.187  17.993  21.058
  242ETHO   H1124469  15.255  18.025  20.977
  242ETHO   H1324470  15.257  17.936  21.124
  242ETHO    C224471  15.134  18.112  21.131
  242ETHO   H2124472  15.034  18.143  21.095
  242ETHO   H2324473  15.213  18.190  21.119
  243ETHO    O124474  15.123  18.088  21.271
  243ETHO    C124475  15.006  18.013  21.304
  243ETHO   H1124476  14.914  18.073  21.290
  243ETHO   H1324477  15.001  17.920  21.243
  243ETHO    C224478  15.016  17.978  21.458
  243ETHO   H2124479  15.119  17.938  21.466
  243ETHO   H2324480  14.931  17.908  21.475
  244ETHO    O124481  15.007  18.098  21.542
  244ETHO    C124482  14.963  18.071  21.676
  244ETHO   H1124483  15.046  18.033  21.739
  244ETHO   H1324484  14.885  17.992  21.680
  244ETHO    C224485  14.916  18.205  21.737
  244ETHO   H2124486  14.996  18.272  21.699
  244ETHO   H2324487  14.912  18.206  21.848
  245ETHO    O124488  14.780  18.234  21.697
  245ETHO    C124489  14.745  18.365  21.727
  245ETHO   H1124490  14.757  18.385  21.835
  245ETHO   H1324491  14.803  18.434  21.662
  245ETHO    C224492  14.600  18.380  21.686
  245ETHO   H2124493  14.596  18.351  21.579
  245ETHO   H2324494  14.569  18.486  21.692
  246ETHO    O124495  14.514  18.306  21.767
  246ETHO    C124496  14.384  18.298  21.699
  246ETHO   H1124497  14.395  18.293  21.588
  246ETHO   H1324498  14.344  18.397  21.729
  246ETHO    C224499  14.300  18.187  21.760
  246ETHO   H2124500  14.193  18.213  21.745
  246ETHO   H2324501  14.314  18.182  21.870
  247ETHO    O124502  14.318  18.060  21.700
  247ETHO    C124503  14.443  17.999  21.731
  247ETHO   H1124504  14.532  18.051  21.688
  247ETHO   H1324505  14.472  18.006  21.838
  247ETHO    C224506  14.431  17.852  21.683
  247ETHO   H2124507  14.516  17.795  21.726
  247ETHO   H2324508  14.334  17.809  21.717
  248ETHO    O124509  14.451  17.827  21.541
  248ETHO    C124510  14.583  17.783  21.504
  248ETHO   H1124511  14.655  17.864  21.525
  248ETHO   H1324512  14.616  17.701  21.572
  248ETHO    C224513  14.585  17.732  21.357
  248ETHO   H2124514  14.685  17.693  21.327
  248ETHO   H2324515  14.563  17.823  21.297
  249ETHO    O124516  14.490  17.629  21.326
  249ETHO    C124517  14.513  17.563  21.199
  249ETHO   H1124518  14.524  17.650  21.131
  249ETHO   H1324519  14.612  17.513  21.197
  249ETHO    C224520  14.395  17.473  21.140
  249ETHO   H2124521  14.431  17.439  21.041
  249ETHO   H2324522  14.299  17.528  21.137
  250ETHO    O124523  14.372  17.360  21.225
  250ETHO    C124524  14.280  17.268  21.173
  250ETHO   H1124525  14.197  17.336  21.142
  250ETHO   H1324526  14.325  17.217  21.085
  250ETHO    C224527  14.239  17.170  21.286
  250ETHO   H2124528  14.327  17.103  21.302
  250ETHO   H2324529  14.155  17.106  21.252
  251ETHO    O124530  14.195  17.242  21.397
  251ETHO    C124531  14.167  17.155  21.510
  251ETHO   H1124532  14.246  17.078  21.514
  251ETHO   H1324533  14.066  17.114  21.489
  251ETHO    C224534  14.177  17.239  21.637
  251ETHO   H2124535  14.086  17.302  21.646
  251ETHO   H2324536  14.268  17.302  21.632
  252ETHO    O124537  14.169  17.161  21.756
  252ETHO    C124538  14.179  17.252  21.864
  252ETHO   H1124539  14.284  17.285  21.859
  252ETHO   H1324540  14.123  17.347  21.851
  252ETHO    C224541  14.116  17.191  21.989
  252ETHO   H2124542  14.135  17.259  22.075
  252ETHO   H2324543  14.139  17.084  22.009
  253ETHO    O124544  13.971  17.190  21.988
  253ETHO    C124545  13.916  17.088  21.905
  253ETHO   H1124546  13.943  16.986  21.941
  253ETHO   H1324547  13.957  17.105  21.803
  253ETHO    C224548  13.758  17.082  21.912
  253ETHO   H2124549  13.713  17.092  22.013
  253ETHO   H2324550  13.730  16.982  21.874
  254ETHO    O124551  13.698  17.163  21.816
  254ETHO    C124552  13.562  17.151  21.818
  254ETHO   H1124553  13.533  17.044  21.825
  254ETHO   H1324554  13.521  17.211  21.902
  254ETHO    C224555  13.493  17.209  21.694
  254ETHO   H2124556  13.514  17.318  21.683
  254ETHO   H2324557  13.383  17.199  21.712
  255ETHO    O124558  13.510  17.121  21.583
  255ETHO    C124559  13.438  17.172  21.466
  255ETHO   H1124560  13.489  17.264  21.430
  255ETHO   H1324561  13.333  17.195  21.494
  255ETHO    C224562  13.444  17.066  21.362
  255ETHO   H2124563  13.390  17.111  21.276
  255ETHO   H2324564  13.397  16.974  21.401
  256ETHO    O124565  13.580  17.033  21.327
  256ETHO    C124566  13.632  17.125  21.225
  256ETHO   H1124567  13.560  17.120  21.140
  256ETHO   H1324568  13.644  17.225  21.271
  256ETHO    C224569  13.772  17.079  21.167
  256ETHO   H2124570  13.805  17.013  21.250
  256ETHO   H2324571  13.848  17.158  21.151
  257ETHO    O124572  13.756  17.009  21.045
  257ETHO    C124573  13.665  16.898  21.051
  257ETHO   H1124574  13.558  16.926  21.057
  257ETHO   H1324575  13.685  16.833  21.139
  257ETHO    C224576  13.684  16.806  20.927
  257ETHO   H2124577  13.653  16.855  20.832
  257ETHO   H2324578  13.615  16.721  20.947
  258ETHO    O124579  13.815  16.750  20.934
  258ETHO    C124580  13.851  16.689  20.814
  258ETHO   H1124581  13.777  16.608  20.798
  258ETHO   H1324582  13.826  16.748  20.723
  258ETHO    C224583  13.993  16.630  20.816
  258ETHO   H2124584  13.990  16.555  20.735
  258ETHO   H2324585  14.008  16.574  20.911
  259ETHO    O124586  14.098  16.728  20.809
  259ETHO    C124587  14.223  16.677  20.856
  259ETHO   H1124588  14.293  16.763  20.859
  259ETHO   H1324589  14.205  16.658  20.964
  259ETHO    C224590  14.298  16.573  20.776
  259ETHO   H2124591  14.405  16.582  20.802
  259ETHO   H2324592  14.294  16.603  20.669
  260ETHO    O124593  14.263  16.430  20.797
  260ETHO    C124594  14.341  16.347  20.716
  260ETHO   H1124595  14.318  16.243  20.749
  260ETHO   H1324596  14.309  16.368  20.612
  260ETHO    C224597  14.490  16.349  20.735
  260ETHO   H2124598  14.544  16.259  20.700
  260ETHO   H2324599  14.511  16.356  20.844
  261ETHO    O124600  14.553  16.453  20.662
  261ETHO    C124601  14.696  16.455  20.687
  261ETHO   H1124602  14.723  16.438  20.793
  261ETHO   H1324603  14.743  16.378  20.622
  261ETHO    C224604  14.751  16.595  20.653
  261ETHO   H2124605  14.696  16.614  20.558
  261ETHO   H2324606  14.860  16.595  20.635
  262ETHO    O124607  14.710  16.696  20.748
  262ETHO    C124608  14.778  16.814  20.720
  262ETHO   H1124609  14.784  16.833  20.611
  262ETHO   H1324610  14.882  16.793  20.753
  262ETHO    C224611  14.716  16.938  20.781
  262ETHO   H2124612  14.785  17.025  20.789
  262ETHO   H2324613  14.690  16.916  20.887
  263ETHO    O124614  14.608  16.981  20.702
  263ETHO    C124615  14.484  16.914  20.729
  263ETHO   H1124616  14.470  16.923  20.839
  263ETHO   H1324617  14.493  16.806  20.705
  263ETHO    C224618  14.366  16.996  20.677
  263ETHO   H2124619  14.376  17.096  20.726
  263ETHO   H2324620  14.273  16.957  20.723
  264ETHO    O124621  14.365  17.006  20.534
  264ETHO    C124622  14.286  17.110  20.493
  264ETHO   H1124623  14.322  17.211  20.521
  264ETHO   H1324624  14.186  17.096  20.541
  264ETHO    C224625  14.252  17.104  20.343
  264ETHO   H2124626  14.173  17.181  20.331
  264ETHO   H2324627  14.219  17.001  20.318
  265ETHO    O124628  14.356  17.132  20.257
  265ETHO    C124629  14.311  17.123  20.124
  265ETHO   H1124630  14.276  17.018  20.112
  265ETHO   H1324631  14.217  17.178  20.102
  265ETHO    C224632  14.418  17.154  20.015
  265ETHO   H2124633  14.375  17.136  19.914
  265ETHO   H2324634  14.500  17.079  20.020
  265ETHO    OZ24635  14.481  17.278  20.032
  265ETHO   HZ124636  14.553  17.294  19.970
    1ETHO    O124637   9.080  11.643   9.549
    1ETHO   HO124638   9.083  11.585   9.472
    1ETHO    C124639   9.084  11.567   9.667
    1ETHO   H1124640   9.161  11.487   9.658
    1ETHO   H1324641   8.984  11.525   9.692
    1ETHO    C224642   9.107  11.658   9.791
    1ETHO   H2124643   9.060  11.598   9.872
    1ETHO   H2324644   9.061  11.760   9.789
    2ETHO    O124645   9.242  11.659   9.832
    2ETHO    C124646   9.263  11.736   9.948
    2ETHO   H1124647   9.172  11.727  10.011
    2ETHO   H1324648   9.351  11.693  10.003
    2ETHO    C224649   9.303  11.879   9.923
    2ETHO   H2124650   9.374  11.873   9.837
    2ETHO   H2324651   9.363  11.931  10.001
    3ETHO    O124652   9.193  11.969   9.886
    3ETHO    C124653   9.122  12.006  10.007
    3ETHO   H1124654   9.183  12.065  10.079
    3ETHO   H1324655   9.093  11.912  10.059
    3ETHO    C224656   8.988  12.071   9.974
    3ETHO   H2124657   8.931  12.083  10.069
    3ETHO   H2324658   8.926  12.001   9.915
    4ETHO    O124659   8.981  12.194   9.895
    4ETHO    C124660   9.005  12.307   9.990
    4ETHO   H1124661   8.916  12.326  10.055
    4ETHO   H1324662   9.091  12.280  10.055
    4ETHO    C224663   9.056  12.424   9.905
    4ETHO   H2124664   8.984  12.455   9.826
    4ETHO   H2324665   9.147  12.395   9.849
    5ETHO    O124666   9.090  12.546   9.984
    5ETHO    C124667   8.964  12.605  10.024
    5ETHO   H1124668   8.918  12.639   9.929
    5ETHO   H1324669   8.901  12.533  10.080
    5ETHO    C224670   8.999  12.726  10.115
    5ETHO   H2124671   9.103  12.710  10.151
    5ETHO   H2324672   8.932  12.726  10.204
    6ETHO    O124673   8.995  12.851  10.044
    6ETHO    C124674   9.001  12.969  10.134
    6ETHO   H1124675   8.912  12.960  10.200
    6ETHO   H1324676   9.086  12.986  10.203
    6ETHO    C224677   8.989  13.101  10.056
    6ETHO   H2124678   8.900  13.088   9.992
    6ETHO   H2324679   9.083  13.120   9.999
    7ETHO    O124680   8.952  13.205  10.146
    7ETHO    C124681   9.062  13.288  10.187
    7ETHO   H1124682   9.042  13.347  10.279
    7ETHO   H1324683   9.149  13.220  10.201
    7ETHO    C224684   9.091  13.401  10.081
    7ETHO   H2124685   8.996  13.442  10.041
    7ETHO   H2324686   9.152  13.354  10.002
    8ETHO    O124687   9.166  13.505  10.142
    8ETHO    C124688   9.201  13.608  10.049
    8ETHO   H1124689   9.106  13.642  10.002
    8ETHO   H1324690   9.261  13.563   9.967
    8ETHO    C224691   9.275  13.721  10.108
    8ETHO   H2124692   9.214  13.773  10.185
    8ETHO   H2324693   9.304  13.786  10.023
    9ETHO    O124694   9.396  13.675  10.178
    9ETHO    C124695   9.464  13.776  10.248
    9ETHO   H1124696   9.561  13.734  10.282
    9ETHO   H1324697   9.481  13.863  10.181
    9ETHO    C224698   9.392  13.824  10.377
    9ETHO   H2124699   9.376  13.737  10.444
    9ETHO   H2324700   9.294  13.875  10.360
   10ETHO    O124701   9.481  13.913  10.441
   10ETHO    C124702   9.460  14.050  10.403
   10ETHO   H1124703   9.387  14.096  10.473
   10ETHO   H1324704   9.448  14.060  10.293
   10ETHO    C224705   9.595  14.122  10.425
   10ETHO   H2124706   9.585  14.224  10.380
   10ETHO   H2324707   9.674  14.067  10.369
   11ETHO    O124708   9.633  14.144  10.561
   11ETHO    C124709   9.752  14.219  10.576
   11ETHO   H1124710   9.830  14.147  10.546
   11ETHO   H1324711   9.755  14.306  10.507
   11ETHO    C224712   9.777  14.274  10.715
   11ETHO   H2124713   9.775  14.187  10.783
   11ETHO   H2324714   9.882  14.310  10.718
   12ETHO    O124715   9.688  14.374  10.748
   12ETHO    C124716   9.697  14.418  10.886
   12ETHO   H1124717   9.799  14.419  10.930
   12ETHO   H1324718   9.653  14.334  10.945
   12ETHO    C224719   9.618  14.542  10.912
   12ETHO   H2124720   9.648  14.631  10.854
   12ETHO   H2324721   9.644  14.561  11.019
   13ETHO    O124722   9.474  14.526  10.908
   13ETHO    C124723   9.406  14.614  10.993
   13ETHO   H1124724   9.297  14.596  10.998
   13ETHO   H1324725   9.431  14.597  11.100
   13ETHO    C224726   9.436  14.759  10.960
   13ETHO   H2124727   9.545  14.784  10.960
   13ETHO   H2324728   9.380  14.817  11.035
   14ETHO    O124729   9.402  14.794  10.828
   14ETHO    C124730   9.447  14.931  10.812
   14ETHO   H1124731   9.550  14.937  10.772
   14ETHO   H1324732   9.452  14.991  10.905
   14ETHO    C224733   9.353  15.007  10.724
   14ETHO   H2124734   9.333  14.951  10.630
   14ETHO   H2324735   9.399  15.108  10.719
   15ETHO    O124736   9.220  15.019  10.773
   15ETHO    C124737   9.164  15.138  10.721
   15ETHO   H1124738   9.225  15.225  10.756
   15ETHO   H1324739   9.172  15.146  10.610
   15ETHO    C224740   9.014  15.159  10.759
   15ETHO   H2124741   8.984  15.258  10.719
   15ETHO   H2324742   8.943  15.081  10.726
   16ETHO    O124743   9.001  15.171  10.902
   16ETHO    C124744   8.865  15.172  10.943
   16ETHO   H1124745   8.814  15.248  10.880
   16ETHO   H1324746   8.818  15.076  10.914
   16ETHO    C224747   8.850  15.206  11.094
   16ETHO   H2124748   8.749  15.245  11.117
   16ETHO   H2324749   8.921  15.287  11.122
   17ETHO    O124750   8.873  15.087  11.166
   17ETHO    C124751   8.902  15.109  11.302
   17ETHO   H1124752   9.011  15.118  11.321
   17ETHO   H1324753   8.853  15.198  11.346
   17ETHO    C224754   8.857  14.985  11.369
   17ETHO   H2124755   8.903  14.901  11.311
   17ETHO   H2324756   8.750  14.968  11.345
   18ETHO    O124757   8.882  14.994  11.507
   18ETHO    C124758   8.841  14.875  11.573
   18ETHO   H1124759   8.734  14.862  11.549
   18ETHO   H1324760   8.912  14.802  11.528
   18ETHO    C224761   8.878  14.883  11.723
   18ETHO   H2124762   8.980  14.926  11.731
   18ETHO   H2324763   8.864  14.774  11.743
   19ETHO    O124764   8.783  14.957  11.803
   19ETHO    C124765   8.820  14.954  11.936
   19ETHO   H1124766   8.926  14.987  11.950
   19ETHO   H1324767   8.801  14.854  11.979
   19ETHO    C224768   8.746  15.061  12.020
   19ETHO   H2124769   8.764  15.164  11.982
   19ETHO   H2324770   8.799  15.049  12.117
   20ETHO    O124771   8.608  15.028  12.043
   20ETHO    C124772   8.535  15.150  12.017
   20ETHO   H1124773   8.574  15.223  12.092
   20ETHO   H1324774   8.555  15.190  11.915
   20ETHO    C224775   8.387  15.126  12.032
   20ETHO   H2124776   8.332  15.217  12.062
   20ETHO   H2324777   8.370  15.051  12.112
   21ETHO    O124778   8.331  15.065  11.916
   21ETHO    C124779   8.187  15.080  11.924
   21ETHO   H1124780   8.148  15.182  11.947
   21ETHO   H1324781   8.153  15.012  12.006
   21ETHO    C224782   8.131  15.024  11.793
   21ETHO   H2124783   8.020  15.014  11.791
   21ETHO   H2324784   8.170  14.921  11.779
   22ETHO    O124785   8.165  15.105  11.680
   22ETHO    C124786   8.072  15.211  11.657
   22ETHO   H1124787   7.970  15.169  11.643
   22ETHO   H1324788   8.070  15.277  11.746
   22ETHO    C224789   8.122  15.309  11.549
   22ETHO   H2124790   8.046  15.390  11.548
   22ETHO   H2324791   8.220  15.353  11.578
   23ETHO    O124792   8.128  15.255  11.417
   23ETHO    C124793   7.998  15.200  11.377
   23ETHO   H1124794   7.923  15.279  11.401
   23ETHO   H1324795   7.970  15.119  11.449
   23ETHO    C224796   7.982  15.167  11.227
   23ETHO   H2124797   8.040  15.240  11.167
   23ETHO   H2324798   7.875  15.185  11.201
   24ETHO    O124799   8.002  15.024  11.194
   24ETHO    C124800   8.066  15.004  11.067
   24ETHO   H1124801   8.006  15.043  10.983
   24ETHO   H1324802   8.165  15.055  11.072
   24ETHO    C224803   8.080  14.849  11.043
   24ETHO   H2124804   8.082  14.832  10.933
   24ETHO   H2324805   7.984  14.814  11.086
   25ETHO    O124806   8.182  14.800  11.115
   25ETHO    C124807   8.163  14.656  11.125
   25ETHO   H1124808   8.069  14.630  11.177
   25ETHO   H1324809   8.251  14.625  11.184
   25ETHO    C224810   8.176  14.585  10.983
   25ETHO   H2124811   8.197  14.476  10.980
   25ETHO   H2324812   8.258  14.636  10.927
   26ETHO    O124813   8.048  14.599  10.916
   26ETHO    C124814   8.052  14.552  10.781
   26ETHO   H1124815   7.978  14.604  10.717
   26ETHO   H1324816   8.149  14.585  10.738
   26ETHO    C224817   8.043  14.399  10.761
   26ETHO   H2124818   8.115  14.339  10.820
   26ETHO   H2324819   8.094  14.383  10.663
   27ETHO    O124820   7.912  14.339  10.749
   27ETHO    C124821   7.910  14.213  10.681
   27ETHO   H1124822   7.947  14.134  10.750
   27ETHO   H1324823   7.987  14.218  10.601
   27ETHO    C224824   7.762  14.175  10.645
   27ETHO   H2124825   7.692  14.215  10.721
   27ETHO   H2324826   7.756  14.066  10.624
   28ETHO    O124827   7.734  14.225  10.518
   28ETHO    C124828   7.696  14.363  10.510
   28ETHO   H1124829   7.618  14.393  10.583
   28ETHO   H1324830   7.776  14.427  10.555
   28ETHO    C224831   7.658  14.409  10.369
   28ETHO   H2124832   7.603  14.505  10.377
   28ETHO   H2324833   7.589  14.332  10.328
   29ETHO    O124834   7.765  14.427  10.279
   29ETHO    C124835   7.718  14.478  10.151
   29ETHO   H1124836   7.677  14.581  10.154
   29ETHO   H1324837   7.641  14.407  10.112
   29ETHO    C224838   7.827  14.461  10.044
   29ETHO   H2124839   7.926  14.501  10.075
   29ETHO   H2324840   7.793  14.518   9.954
   30ETHO    O124841   7.839  14.327  10.003
   30ETHO    C124842   7.974  14.286   9.966
   30ETHO   H1124843   8.010  14.332   9.871
   30ETHO   H1324844   8.035  14.318  10.053
   30ETHO    C224845   7.994  14.139   9.961
   30ETHO   H2124846   7.965  14.109  10.065
   30ETHO   H2324847   8.103  14.117   9.956
   31ETHO    O124848   7.916  14.079   9.855
   31ETHO    C124849   8.001  14.047   9.740
   31ETHO   H1124850   8.068  14.133   9.721
   31ETHO   H1324851   8.060  13.954   9.753
   31ETHO    C224852   7.914  14.027   9.610
   31ETHO   H2124853   7.852  14.118   9.592
   31ETHO   H2324854   7.852  13.938   9.631
   32ETHO    O124855   7.985  14.004   9.490
   32ETHO    C124856   7.893  13.970   9.381
   32ETHO   H1124857   7.953  13.940   9.292
   32ETHO   H1324858   7.831  13.885   9.417
   32ETHO    C224859   7.809  14.090   9.333
   32ETHO   H2124860   7.733  14.122   9.407
   32ETHO   H2324861   7.758  14.051   9.242
   33ETHO    O124862   7.891  14.184   9.280
   33ETHO    C124863   7.817  14.291   9.225
   33ETHO   H1124864   7.710  14.261   9.223
   33ETHO   H1324865   7.825  14.381   9.289
   33ETHO    C224866   7.875  14.311   9.085
   33ETHO   H2124867   7.986  14.314   9.086
   33ETHO   H2324868   7.839  14.409   9.047
   34ETHO    O124869   7.845  14.209   8.991
   34ETHO    C124870   7.868  14.267   8.863
   34ETHO   H1124871   7.970  14.312   8.857
   34ETHO   H1324872   7.796  14.351   8.860
   34ETHO    C224873   7.852  14.169   8.743
   34ETHO   H2124874   7.759  14.111   8.760
   34ETHO   H2324875   7.938  14.100   8.740
   35ETHO    O124876   7.827  14.252   8.631
   35ETHO    C124877   7.940  14.312   8.573
   35ETHO   H1124878   7.971  14.397   8.637
   35ETHO   H1324879   8.019  14.234   8.571
   35ETHO    C224880   7.917  14.354   8.419
   35ETHO   H2124881   8.014  14.385   8.374
   35ETHO   H2324882   7.833  14.427   8.417
   36ETHO    O124883   7.877  14.246   8.328
   36ETHO    C124884   7.855  14.284   8.189
   36ETHO   H1124885   7.950  14.283   8.130
   36ETHO   H1324886   7.826  14.391   8.193
   36ETHO    C224887   7.730  14.218   8.136
   36ETHO   H2124888   7.734  14.107   8.149
   36ETHO   H2324889   7.725  14.231   8.026
   37ETHO    O124890   7.617  14.250   8.204
   37ETHO    C124891   7.507  14.169   8.154
   37ETHO   H1124892   7.497  14.178   8.044
   37ETHO   H1324893   7.530  14.061   8.169
   37ETHO    C224894   7.374  14.203   8.210
   37ETHO   H2124895   7.367  14.204   8.321
   37ETHO   H2324896   7.310  14.118   8.178
   38ETHO    O124897   7.296  14.311   8.152
   38ETHO    C124898   7.161  14.314   8.205
   38ETHO   H1124899   7.175  14.351   8.309
   38ETHO   H1324900   7.118  14.214   8.228
   38ETHO    C224901   7.069  14.414   8.135
   38ETHO   H2124902   7.122  14.508   8.109
   38ETHO   H2324903   6.992  14.444   8.210
   39ETHO    O124904   7.010  14.350   8.022
   39ETHO    C124905   6.891  14.277   8.049
   39ETHO   H1124906   6.884  14.265   8.159
   39ETHO   H1324907   6.807  14.323   7.992
   39ETHO    C224908   6.921  14.133   7.988
   39ETHO   H2124909   6.992  14.143   7.903
   39ETHO   H2324910   6.831  14.079   7.951
   40ETHO    O124911   6.982  14.046   8.079
   40ETHO    C124912   6.898  13.973   8.165
   40ETHO   H1124913   6.842  13.903   8.099
   40ETHO   H1324914   6.825  14.039   8.216
   40ETHO    C224915   6.963  13.888   8.273
   40ETHO   H2124916   7.031  13.808   8.236
   40ETHO   H2324917   6.880  13.846   8.333
   41ETHO    O124918   7.043  13.980   8.357
   41ETHO    C124919   7.118  13.904   8.453
   41ETHO   H1124920   7.069  13.813   8.495
   41ETHO   H1324921   7.213  13.878   8.401
   41ETHO    C224922   7.166  14.005   8.565
   41ETHO   H2124923   7.211  13.952   8.653
   41ETHO   H2324924   7.078  14.052   8.614
   42ETHO    O124925   7.262  14.104   8.511
   42ETHO    C124926   7.313  14.179   8.622
   42ETHO   H1124927   7.232  14.208   8.692
   42ETHO   H1324928   7.379  14.106   8.675
   42ETHO    C224929   7.413  14.295   8.588
   42ETHO   H2124930   7.394  14.353   8.495
   42ETHO   H2324931   7.513  14.247   8.578
   43ETHO    O124932   7.417  14.378   8.705
   43ETHO    C124933   7.536  14.468   8.711
   43ETHO   H1124934   7.618  14.407   8.754
   43ETHO   H1324935   7.575  14.495   8.610
   43ETHO    C224936   7.510  14.580   8.803
   43ETHO   H2124937   7.480  14.523   8.893
   43ETHO   H2324938   7.428  14.648   8.771
   44ETHO    O124939   7.631  14.642   8.825
   44ETHO    C124940   7.614  14.781   8.852
   44ETHO   H1124941   7.549  14.782   8.941
   44ETHO   H1324942   7.712  14.828   8.876
   44ETHO    C224943   7.572  14.864   8.725
   44ETHO   H2124944   7.631  14.824   8.640
   44ETHO   H2324945   7.607  14.967   8.748
   45ETHO    O124946   7.433  14.872   8.691
   45ETHO    C124947   7.420  14.916   8.558
   45ETHO   H1124948   7.435  14.836   8.482
   45ETHO   H1324949   7.497  14.993   8.536
   45ETHO    C224950   7.280  14.975   8.519
   45ETHO   H2124951   7.187  14.914   8.524
   45ETHO   H2324952   7.276  15.005   8.413
   46ETHO    O124953   7.254  15.082   8.607
   46ETHO    C124954   7.128  15.144   8.580
   46ETHO   H1124955   7.133  15.197   8.482
   46ETHO   H1324956   7.053  15.063   8.582
   46ETHO    C224957   7.077  15.242   8.688
   46ETHO   H2124958   6.968  15.258   8.669
   46ETHO   H2324959   7.132  15.336   8.672
   47ETHO    O124960   7.099  15.192   8.823
   47ETHO    C124961   7.060  15.286   8.919
   47ETHO   H1124962   6.962  15.332   8.895
   47ETHO   H1324963   7.136  15.367   8.915
   47ETHO    C224964   7.050  15.216   9.051
   47ETHO   H2124965   6.975  15.134   9.043
   47ETHO   H2324966   7.029  15.290   9.131
   48ETHO    O124967   7.175  15.152   9.087
   48ETHO    C124968   7.171  15.088   9.217
   48ETHO   H1124969   7.237  15.157   9.272
   48ETHO   H1324970   7.066  15.090   9.254
   48ETHO    C224971   7.230  14.948   9.218
   48ETHO   H2124972   7.334  14.959   9.182
   48ETHO   H2324973   7.232  14.915   9.325
   49ETHO    O124974   7.154  14.845   9.155
   49ETHO    C124975   7.191  14.712   9.195
   49ETHO   H1124976   7.124  14.643   9.138
   49ETHO   H1324977   7.169  14.701   9.304
   49ETHO    C224978   7.341  14.686   9.155
   49ETHO   H2124979   7.395  14.729   9.242
   49ETHO   H2324980   7.370  14.727   9.056
   50ETHO    O124981   7.357  14.545   9.129
   50ETHO    C124982   7.483  14.499   9.159
   50ETHO   H1124983   7.530  14.438   9.078
   50ETHO   H1324984   7.556  14.582   9.168
   50ETHO    C224985   7.485  14.421   9.294
   50ETHO   H2124986   7.444  14.476   9.381
   50ETHO   H2324987   7.590  14.410   9.329
   51ETHO    O124988   7.425  14.299   9.281
   51ETHO    C124989   7.411  14.237   9.409
   51ETHO   H1124990   7.332  14.289   9.467
   51ETHO   H1324991   7.512  14.238   9.455
   51ETHO    C224992   7.361  14.090   9.387
   51ETHO   H2124993   7.260  14.083   9.342
   51ETHO   H2324994   7.355  14.035   9.483
   52ETHO    O124995   7.457  14.015   9.308
   52ETHO    C124996   7.413  13.886   9.275
   52ETHO   H1124997   7.396  13.825   9.367
   52ETHO   H1324998   7.322  13.892   9.212
   52ETHO    C224999   7.527  13.828   9.183
   52ETHO   H2125000   7.515  13.718   9.178
   52ETHO   H2325001   7.629  13.847   9.223
   53ETHO    O125002   7.519  13.875   9.044
   53ETHO    C125003   7.577  14.006   9.025
   53ETHO   H1125004   7.580  14.052   9.127
   53ETHO   H1325005   7.684  13.984   9.005
   53ETHO    C225006   7.506  14.093   8.921
   53ETHO   H2125007   7.551  14.063   8.823
   53ETHO   H2325008   7.530  14.200   8.933
   54ETHO    O125009   7.366  14.082   8.912
   54ETHO    C125010   7.312  14.191   8.984
   54ETHO   H1125011   7.377  14.219   9.070
   54ETHO   H1325012   7.308  14.273   8.910
   54ETHO    C225013   7.174  14.161   9.035
   54ETHO   H2125014   7.135  14.255   9.080
   54ETHO   H2325015   7.182  14.078   9.109
   55ETHO    O125016   7.073  14.130   8.935
   55ETHO    C125017   6.943  14.107   8.995
   55ETHO   H1125018   6.949  14.013   9.054
   55ETHO   H1325019   6.921  14.193   9.061
   55ETHO    C225020   6.854  14.086   8.874
   55ETHO   H2125021   6.753  14.059   8.910
   55ETHO   H2325022   6.850  14.178   8.813
   56ETHO    O125023   6.889  13.972   8.792
   56ETHO    C125024   6.808  13.975   8.670
   56ETHO   H1125025   6.861  14.043   8.600
   56ETHO   H1325026   6.709  14.017   8.696
   56ETHO    C225027   6.780  13.831   8.613
   56ETHO   H2125028   6.876  13.774   8.609
   56ETHO   H2325029   6.751  13.832   8.506
   57ETHO    O125030   6.688  13.750   8.691
   57ETHO    C125031   6.680  13.620   8.645
   57ETHO   H1125032   6.777  13.590   8.600
   57ETHO   H1325033   6.641  13.547   8.720
   57ETHO    C225034   6.578  13.617   8.539
   57ETHO   H2125035   6.477  13.651   8.571
   57ETHO   H2325036   6.557  13.509   8.518
   58ETHO    O125037   6.609  13.677   8.418
   58ETHO    C125038   6.537  13.628   8.305
   58ETHO   H1125039   6.433  13.599   8.330
   58ETHO   H1325040   6.585  13.534   8.272
   58ETHO    C225041   6.531  13.738   8.199
   58ETHO   H2125042   6.504  13.684   8.106
   58ETHO   H2325043   6.630  13.785   8.184
   59ETHO    O125044   6.439  13.847   8.227
   59ETHO    C125045   6.432  13.949   8.130
   59ETHO   H1125046   6.526  14.010   8.131
   59ETHO   H1325047   6.426  13.892   8.035
   59ETHO    C225048   6.316  14.049   8.136
   59ETHO   H2125049   6.220  13.995   8.154
   59ETHO   H2325050   6.316  14.112   8.045
   60ETHO    O125051   6.333  14.126   8.252
   60ETHO    C125052   6.261  14.247   8.255
   60ETHO   H1125053   6.227  14.274   8.358
   60ETHO   H1325054   6.165  14.251   8.198
   60ETHO    C225055   6.354  14.352   8.202
   60ETHO   H2125056   6.311  14.454   8.193
   60ETHO   H2325057   6.385  14.313   8.103
   61ETHO    O125058   6.468  14.367   8.288
   61ETHO    C125059   6.579  14.443   8.238
   61ETHO   H1125060   6.620  14.394   8.147
   61ETHO   H1325061   6.552  14.547   8.211
   61ETHO    C225062   6.691  14.464   8.339
   61ETHO   H2125063   6.640  14.507   8.428
   61ETHO   H2325064   6.778  14.525   8.305
   62ETHO    O125065   6.738  14.331   8.363
   62ETHO    C125066   6.789  14.303   8.495
   62ETHO   H1125067   6.772  14.193   8.507
   62ETHO   H1325068   6.722  14.352   8.568
   62ETHO    C225069   6.932  14.349   8.513
   62ETHO   H2125070   6.993  14.329   8.423
   62ETHO   H2325071   6.972  14.284   8.594
   63ETHO    O125072   6.941  14.483   8.554
   63ETHO    C125073   7.078  14.529   8.534
   63ETHO   H1125074   7.149  14.444   8.541
   63ETHO   H1325075   7.092  14.584   8.439
   63ETHO    C225076   7.113  14.615   8.658
   63ETHO   H2125077   7.198  14.681   8.632
   63ETHO   H2325078   7.134  14.552   8.748
   64ETHO    O125079   7.006  14.695   8.702
   64ETHO    C125080   7.045  14.794   8.793
   64ETHO   H1125081   7.123  14.850   8.737
   64ETHO   H1325082   7.090  14.740   8.879
   64ETHO    C225083   6.927  14.886   8.841
   64ETHO   H2125084   6.967  14.965   8.908
   64ETHO   H2325085   6.860  14.809   8.883
   65ETHO    O125086   6.849  14.936   8.731
   65ETHO    C125087   6.782  15.063   8.761
   65ETHO   H1125088   6.863  15.134   8.788
   65ETHO   H1325089   6.734  15.109   8.671
   65ETHO    C225090   6.675  15.049   8.874
   65ETHO   H2125091   6.637  14.946   8.866
   65ETHO   H2325092   6.596  15.125   8.856
   66ETHO    O125093   6.735  15.060   8.995
   66ETHO    C125094   6.632  15.077   9.090
   66ETHO   H1125095   6.536  15.027   9.066
   66ETHO   H1325096   6.605  15.184   9.085
   66ETHO    C225097   6.679  15.043   9.233
   66ETHO   H2125098   6.602  15.076   9.305
   66ETHO   H2325099   6.779  15.091   9.243
   67ETHO    O125100   6.684  14.899   9.239
   67ETHO    C125101   6.817  14.846   9.239
   67ETHO   H1125102   6.810  14.749   9.185
   67ETHO   H1325103   6.876  14.915   9.175
   67ETHO    C225104   6.866  14.827   9.384
   67ETHO   H2125105   6.830  14.918   9.437
   67ETHO   H2325106   6.977  14.829   9.380
   68ETHO    O125107   6.818  14.711   9.451
   68ETHO    C125108   6.874  14.680   9.577
   68ETHO   H1125109   6.983  14.693   9.563
   68ETHO   H1325110   6.826  14.748   9.651
   68ETHO    C225111   6.845  14.536   9.611
   68ETHO   H2125112   6.738  14.504   9.613
   68ETHO   H2325113   6.878  14.519   9.716
   69ETHO    O125114   6.915  14.455   9.520
   69ETHO    C125115   6.869  14.322   9.511
   69ETHO   H1125116   6.951  14.248   9.511
   69ETHO   H1325117   6.814  14.302   9.605
   69ETHO    C225118   6.777  14.308   9.391
   69ETHO   H2125119   6.690  14.375   9.406
   69ETHO   H2325120   6.732  14.206   9.396
   70ETHO    O125121   6.819  14.324   9.252
   70ETHO    C125122   6.849  14.461   9.225
   70ETHO   H1125123   6.764  14.525   9.258
   70ETHO   H1325124   6.937  14.496   9.283
   70ETHO    C225125   6.880  14.479   9.073
   70ETHO   H2125126   6.943  14.392   9.045
   70ETHO   H2325127   6.929  14.578   9.061
   71ETHO    O125128   6.755  14.481   9.008
   71ETHO    C125129   6.774  14.481   8.865
   71ETHO   H1125130   6.781  14.377   8.828
   71ETHO   H1325131   6.873  14.525   8.839
   71ETHO    C225132   6.677  14.566   8.791
   71ETHO   H2125133   6.719  14.582   8.690
   71ETHO   H2325134   6.658  14.669   8.829
   72ETHO    O125135   6.547  14.504   8.779
   72ETHO    C125136   6.460  14.579   8.702
   72ETHO   H1125137   6.431  14.666   8.766
   72ETHO   H1325138   6.506  14.602   8.604
   72ETHO    C225139   6.331  14.498   8.685
   72ETHO   H2125140   6.288  14.471   8.783
   72ETHO   H2325141   6.355  14.403   8.634
   73ETHO    O125142   6.252  14.578   8.603
   73ETHO    C125143   6.127  14.523   8.573
   73ETHO   H1125144   6.080  14.508   8.673
   73ETHO   H1325145   6.148  14.425   8.527
   73ETHO    C225146   6.030  14.603   8.481
   73ETHO   H2125147   5.939  14.540   8.483
   73ETHO   H2325148   6.076  14.604   8.379
   74ETHO    O125149   6.008  14.736   8.512
   74ETHO    C125150   5.935  14.750   8.632
   74ETHO   H1125151   5.850  14.679   8.642
   74ETHO   H1325152   6.002  14.735   8.719
   74ETHO    C225153   5.878  14.898   8.637
   74ETHO   H2125154   5.937  14.966   8.572
   74ETHO   H2325155   5.894  14.933   8.741
   75ETHO    O125156   5.737  14.908   8.610
   75ETHO    C125157   5.705  15.041   8.578
   75ETHO   H1125158   5.777  15.066   8.497
   75ETHO   H1325159   5.723  15.100   8.671
   75ETHO    C225160   5.557  15.043   8.542
   75ETHO   H2125161   5.545  14.989   8.446
   75ETHO   H2325162   5.524  15.144   8.511
   76ETHO    O125163   5.466  15.011   8.643
   76ETHO    C125164   5.333  15.049   8.615
   76ETHO   H1125165   5.277  15.022   8.708
   76ETHO   H1325166   5.326  15.160   8.612
   76ETHO    C225167   5.272  14.989   8.498
   76ETHO   H2125168   5.161  14.986   8.498
   76ETHO   H2325169   5.313  14.886   8.497
   77ETHO    O125170   5.295  15.063   8.377
   77ETHO    C125171   5.281  14.986   8.260
   77ETHO   H1125172   5.181  14.939   8.255
   77ETHO   H1325173   5.360  14.909   8.273
   77ETHO    C225174   5.300  15.056   8.121
   77ETHO   H2125175   5.279  15.164   8.139
   77ETHO   H2325176   5.230  15.016   8.045
   78ETHO    O125177   5.437  15.059   8.083
   78ETHO    C125178   5.458  15.135   7.968
   78ETHO   H1125179   5.408  15.077   7.888
   78ETHO   H1325180   5.430  15.243   7.968
   78ETHO    C225181   5.602  15.127   7.935
   78ETHO   H2125182   5.626  15.173   7.836
   78ETHO   H2325183   5.644  15.024   7.931
   79ETHO    O125184   5.689  15.205   8.018
   79ETHO    C125185   5.826  15.202   7.975
   79ETHO   H1125186   5.869  15.101   7.988
   79ETHO   H1325187   5.832  15.224   7.866
   79ETHO    C225188   5.914  15.313   8.048
   79ETHO   H2125189   5.866  15.402   8.002
   79ETHO   H2325190   6.023  15.320   8.032
   80ETHO    O125191   5.906  15.312   8.188
   80ETHO    C125192   5.974  15.425   8.254
   80ETHO   H1125193   6.082  15.403   8.242
   80ETHO   H1325194   5.941  15.518   8.202
   80ETHO    C225195   5.944  15.436   8.406
   80ETHO   H2125196   5.839  15.468   8.420
   80ETHO   H2325197   6.008  15.515   8.451
   81ETHO    O125198   5.963  15.316   8.477
   81ETHO    C125199   5.916  15.328   8.615
   81ETHO   H1125200   5.821  15.385   8.626
   81ETHO   H1325201   5.907  15.224   8.653
   81ETHO    C225202   6.014  15.397   8.711
   81ETHO   H2125203   6.025  15.502   8.673
   81ETHO   H2325204   5.962  15.396   8.809
   82ETHO    O125205   6.141  15.328   8.732
   82ETHO    C125206   6.220  15.372   8.840
   82ETHO   H1125207   6.151  15.384   8.926
   82ETHO   H1325208   6.268  15.469   8.815
   82ETHO    C225209   6.341  15.281   8.874
   82ETHO   H2125210   6.390  15.336   8.958
   82ETHO   H2325211   6.410  15.278   8.786
   83ETHO    O125212   6.298  15.151   8.913
   83ETHO    C125213   6.267  15.060   8.812
   83ETHO   H1125214   6.183  15.087   8.745
   83ETHO   H1325215   6.359  15.055   8.749
   83ETHO    C225216   6.239  14.918   8.869
   83ETHO   H2125217   6.257  14.849   8.783
   83ETHO   H2325218   6.140  14.896   8.913
   84ETHO    O125219   6.339  14.885   8.962
   84ETHO    C125220   6.315  14.757   9.015
   84ETHO   H1125221   6.287  14.697   8.926
   84ETHO   H1325222   6.232  14.778   9.087
   84ETHO    C225223   6.429  14.684   9.091
   84ETHO   H2125224   6.477  14.746   9.170
   84ETHO   H2325225   6.512  14.664   9.020
   85ETHO    O125226   6.367  14.565   9.150
   85ETHO    C125227   6.425  14.528   9.277
   85ETHO   H1125228   6.535  14.538   9.264
   85ETHO   H1325229   6.386  14.609   9.342
   85ETHO    C225230   6.361  14.400   9.326
   85ETHO   H2125231   6.251  14.399   9.311
   85ETHO   H2325232   6.372  14.389   9.436
   86ETHO    O125233   6.424  14.283   9.278
   86ETHO    C125234   6.369  14.168   9.341
   86ETHO   H1125235   6.260  14.163   9.324
   86ETHO   H1325236   6.382  14.176   9.451
   86ETHO    C225237   6.446  14.035   9.300
   86ETHO   H2125238   6.452  14.019   9.190
   86ETHO   H2325239   6.394  13.943   9.333
   87ETHO    O125240   6.580  14.040   9.341
   87ETHO    C125241   6.658  13.955   9.252
   87ETHO   H1125242   6.589  13.896   9.188
   87ETHO   H1325243   6.710  14.016   9.175
   87ETHO    C225244   6.762  13.880   9.335
   87ETHO   H2125245   6.813  13.800   9.277
   87ETHO   H2325246   6.710  13.821   9.413
   88ETHO    O125247   6.853  13.968   9.403
   88ETHO    C125248   6.948  13.898   9.482
   88ETHO   H1125249   7.009  13.834   9.414
   88ETHO   H1325250   6.901  13.822   9.547
   88ETHO    C225251   7.034  13.999   9.556
   88ETHO   H2125252   7.081  14.077   9.492
   88ETHO   H2325253   7.111  13.944   9.615
   89ETHO    O125254   6.953  14.061   9.655
   89ETHO    C125255   7.034  14.112   9.758
   89ETHO   H1125256   7.091  14.027   9.801
   89ETHO   H1325257   7.103  14.190   9.720
   89ETHO    C225258   6.967  14.175   9.876
   89ETHO   H2125259   6.879  14.117   9.912
   89ETHO   H2325260   6.928  14.275   9.848
   90ETHO    O125261   7.071  14.195   9.975
   90ETHO    C125262   7.060  14.099  10.078
   90ETHO   H1125263   6.967  14.118  10.136
   90ETHO   H1325264   7.046  13.998  10.033
   90ETHO    C225265   7.176  14.109  10.177
   90ETHO   H2125266   7.169  14.045  10.267
   90ETHO   H2325267   7.174  14.215  10.210
   91ETHO    O125268   7.303  14.088  10.105
   91ETHO    C125269   7.373  13.979  10.162
   91ETHO   H1125270   7.362  13.982  10.272
   91ETHO   H1325271   7.326  13.886  10.122
   91ETHO    C225272   7.517  13.978  10.125
   91ETHO   H2125273   7.557  14.080  10.141
   91ETHO   H2325274   7.519  13.949  10.017
   92ETHO    O125275   7.596  13.887  10.194
   92ETHO    C125276   7.738  13.914  10.158
   92ETHO   H1125277   7.759  13.877  10.055
   92ETHO   H1325278   7.753  14.023  10.176
   92ETHO    C225279   7.828  13.838  10.261
   92ETHO   H2125280   7.824  13.729  10.240
   92ETHO   H2325281   7.794  13.865  10.363
   93ETHO    O125282   7.962  13.892  10.256
   93ETHO    C125283   7.992  13.995  10.348
   93ETHO   H1125284   7.957  13.964  10.449
   93ETHO   H1325285   7.926  14.081  10.322
   93ETHO    C225286   8.141  14.033  10.358
   93ETHO   H2125287   8.167  14.122  10.297
   93ETHO   H2325288   8.215  13.954  10.331
   94ETHO    O125289   8.167  14.066  10.502
   94ETHO    C125290   8.295  14.120  10.523
   94ETHO   H1125291   8.366  14.058  10.465
   94ETHO   H1325292   8.290  14.230  10.508
   94ETHO    C225293   8.322  14.098  10.670
   94ETHO   H2125294   8.250  14.154  10.734
   94ETHO   H2325295   8.415  14.156  10.692
   95ETHO    O125296   8.345  13.965  10.712
   95ETHO    C125297   8.296  13.933  10.842
   95ETHO   H1125298   8.287  13.822  10.848
   95ETHO   H1325299   8.195  13.978  10.855
   95ETHO    C225300   8.395  13.984  10.957
   95ETHO   H2125301   8.378  14.091  10.981
   95ETHO   H2325302   8.499  13.959  10.926
   96ETHO    O125303   8.379  13.912  11.075
   96ETHO    C125304   8.478  13.949  11.176
   96ETHO   H1125305   8.582  13.913  11.157
   96ETHO   H1325306   8.480  14.060  11.180
   96ETHO    C225307   8.432  13.902  11.314
   96ETHO   H2125308   8.322  13.888  11.302
   96ETHO   H2325309   8.457  13.981  11.388
   97ETHO    O125310   8.485  13.778  11.356
   97ETHO    C125311   8.464  13.767  11.495
   97ETHO   H1125312   8.359  13.789  11.526
   97ETHO   H1325313   8.534  13.839  11.542
   97ETHO    C225314   8.494  13.626  11.554
   97ETHO   H2125315   8.420  13.550  11.519
   97ETHO   H2325316   8.467  13.646  11.660
   98ETHO    O125317   8.633  13.592  11.539
   98ETHO    C125318   8.679  13.481  11.614
   98ETHO   H1125319   8.786  13.496  11.637
   98ETHO   H1325320   8.614  13.464  11.703
   98ETHO    C225321   8.671  13.347  11.537
   98ETHO   H2125322   8.725  13.267  11.593
   98ETHO   H2325323   8.729  13.366  11.444
   99ETHO    O125324   8.545  13.295  11.514
   99ETHO    C125325   8.545  13.175  11.444
   99ETHO   H1125326   8.442  13.134  11.452
   99ETHO   H1325327   8.624  13.109  11.486
   99ETHO    C225328   8.580  13.190  11.296
   99ETHO   H2125329   8.588  13.091  11.247
   99ETHO   H2325330   8.680  13.237  11.280
  100ETHO    O125331   8.478  13.256  11.227
  100ETHO    C125332   8.493  13.399  11.238
  100ETHO   H1125333   8.465  13.430  11.340
  100ETHO   H1325334   8.601  13.425  11.226
  100ETHO    C225335   8.410  13.456  11.127
  100ETHO   H2125336   8.378  13.557  11.162
  100ETHO   H2325337   8.314  13.404  11.106
  101PROX    O125338   8.481  13.473  11.009
  101PROX    C125339   8.486  13.352  10.930
  101PROX   H1125340   8.539  13.274  10.988
  101PROX   H1325341   8.379  13.327  10.914
  101PROX    C225342   8.565  13.372  10.795
  101PROX   H2125343   8.673  13.394  10.811
  101PROX    C325344   8.512  13.494  10.721
  101PROX   H3125345   8.537  13.589  10.773
  101PROX   H3225346   8.558  13.496  10.620
  101PROX   H3325347   8.402  13.481  10.709
  102PROX    O125348   8.546  13.251  10.712
  102PROX    C125349   8.617  13.130  10.764
  102PROX   H1125350   8.586  13.123  10.871
  102PROX   H1325351   8.594  13.031  10.718
  102PROX    C225352   8.768  13.143  10.755
  102PROX   H2125353   8.813  13.206  10.834
  102PROX    C325354   8.813  13.182  10.613
  102PROX   H3125355   8.776  13.107  10.540
  102PROX   H3225356   8.786  13.282  10.572
  102PROX   H3325357   8.924  13.178  10.611
  103PROX    O125358   8.825  13.010  10.774
  103PROX    C125359   8.830  12.969  10.912
  103PROX   H1125360   8.881  13.047  10.972
  103PROX   H1325361   8.723  12.954  10.938
  103PROX    C225362   8.921  12.849  10.937
  103PROX   H2125363   9.021  12.875  10.895
  103PROX    C325364   8.871  12.730  10.862
  103PROX   H3125365   8.770  12.697  10.896
  103PROX   H3225366   8.862  12.750  10.753
  103PROX   H3325367   8.939  12.648  10.895
  104PROX    O125368   8.926  12.818  11.074
  104PROX    C125369   9.028  12.884  11.151
  104PROX   H1125370   9.129  12.845  11.125
  104PROX   H1325371   9.022  12.992  11.125
  104PROX    C225372   9.011  12.866  11.305
  104PROX   H2125373   9.034  12.761  11.332
  104PROX    C325374   8.872  12.907  11.339
  104PROX   H3125375   8.843  12.993  11.276
  104PROX   H3225376   8.794  12.829  11.331
  104PROX   H3325377   8.869  12.949  11.441
  105PROX    O125378   9.097  12.960  11.369
  105PROX    C125379   9.236  12.917  11.377
  105PROX   H1125380   9.271  12.913  11.482
  105PROX   H1325381   9.251  12.815  11.336
  105PROX    C225382   9.340  13.012  11.297
  105PROX   H2125383   9.440  12.977  11.331
  105PROX    C325384   9.342  13.156  11.349
  105PROX   H3125385   9.253  13.206  11.305
  105PROX   H3225386   9.337  13.170  11.459
  105PROX   H3325387   9.432  13.210  11.313
  106PROX    O125388   9.325  13.000  11.159
  106PROX    C125389   9.421  13.073  11.084
  106PROX   H1125390   9.394  13.179  11.066
  106PROX   H1325391   9.518  13.080  11.138
  106PROX    C225392   9.424  13.019  10.935
  106PROX   H2125393   9.435  12.909  10.933
  106PROX    C325394   9.537  13.088  10.860
  106PROX   H3125395   9.514  13.193  10.834
  106PROX   H3225396   9.630  13.097  10.921
  106PROX   H3325397   9.559  13.045  10.760
  107PROX    O125398   9.309  13.056  10.862
  107PROX    C125399   9.289  12.978  10.748
  107PROX   H1125400   9.368  13.001  10.673
  107PROX   H1325401   9.286  12.870  10.775
  107PROX    C225402   9.160  13.011  10.665
  107PROX   H2125403   9.073  13.036  10.730
  107PROX    C325404   9.120  12.886  10.588
  107PROX   H3125405   9.049  12.918  10.508
  107PROX   H3225406   9.199  12.823  10.541
  107PROX   H3325407   9.069  12.822  10.663
  108PROX    O125408   9.192  13.122  10.580
  108PROX    C125409   9.201  13.252  10.640
  108PROX   H1125410   9.125  13.258  10.720
  108PROX   H1325411   9.298  13.266  10.693
  108PROX    C225412   9.182  13.376  10.540
  108PROX   H2125413   9.086  13.348  10.492
  108PROX    C325414   9.289  13.371  10.435
  108PROX   H3125415   9.388  13.387  10.482
  108PROX   H3225416   9.284  13.278  10.375
  108PROX   H3325417   9.269  13.456  10.366
  109PROX    O125418   9.180  13.495  10.621
  109PROX    C125419   9.123  13.615  10.555
  109PROX   H1125420   9.170  13.626  10.455
  109PROX   H1325421   9.015  13.590  10.546
  109PROX    C225422   9.135  13.745  10.635
  109PROX   H2125423   9.240  13.778  10.616
  109PROX    C325424   9.120  13.712  10.787
  109PROX   H3125425   9.120  13.799  10.855
  109PROX   H3225426   9.041  13.636  10.808
  109PROX   H3325427   9.217  13.668  10.817
  110PROX    O125428   9.045  13.846  10.582
  110PROX    C125429   8.905  13.824  10.621
  110PROX   H1125430   8.864  13.722  10.606
  110PROX   H1325431   8.906  13.835  10.732
  110PROX    C225432   8.816  13.929  10.547
  110PROX   H2125433   8.872  14.025  10.551
  110PROX    C325434   8.693  13.944  10.630
  110PROX   H3125435   8.626  14.026  10.597
  110PROX   H3225436   8.623  13.858  10.634
  110PROX   H3325437   8.721  13.964  10.736
  111PROX    O125438   8.776  13.890  10.416
  111PROX    C125439   8.879  13.911  10.319
  111PROX   H1125440   8.863  14.012  10.276
  111PROX   H1325441   8.978  13.888  10.365
  111PROX    C225442   8.873  13.804  10.207
  111PROX   H2125443   8.771  13.807  10.164
  111PROX    C325444   8.894  13.659  10.265
  111PROX   H3125445   8.824  13.627  10.346
  111PROX   H3225446   8.900  13.576  10.191
  111PROX   H3325447   8.994  13.662  10.314
  112PROX    O125448   8.969  13.834  10.104
  112PROX    C125449   8.924  13.951  10.029
  112PROX   H1125450   8.823  13.939   9.982
  112PROX   H1325451   8.911  14.043  10.089
  112PROX    C225452   9.020  13.995   9.912
  112PROX   H2125453   9.124  13.975   9.946
  112PROX    C325454   9.000  14.145   9.881
  112PROX   H3125455   8.891  14.157   9.870
  112PROX   H3225456   9.039  14.201   9.969
  112PROX   H3325457   9.064  14.181   9.798
  113PROX    O125458   8.989  13.921   9.790
  113PROX    C125459   9.062  13.946   9.664
  113PROX   H1125460   8.981  13.918   9.592
  113PROX   H1325461   9.096  14.050   9.644
  113PROX    C225462   9.186  13.851   9.642
  113PROX   H2125463   9.165  13.765   9.709
  113PROX    C325464   9.309  13.914   9.700
  113PROX   H3125465   9.296  13.963   9.799
  113PROX   H3225466   9.382  13.831   9.712
  113PROX   H3325467   9.360  13.981   9.627
  114PROX    O125468   9.207  13.827   9.498
  114PROX    C125469   9.291  13.710   9.472
  114PROX   H1125470   9.387  13.725   9.526
  114PROX   H1325471   9.249  13.615   9.512
  114PROX    C225472   9.337  13.705   9.332
  114PROX   H2125473   9.399  13.794   9.308
  114PROX    C325474   9.221  13.702   9.240
  114PROX   H3125475   9.134  13.754   9.287
  114PROX   H3225476   9.245  13.752   9.143
  114PROX   H3325477   9.177  13.602   9.223
  115PROX    O125478   9.420  13.585   9.307
  115PROX    C125479   9.537  13.586   9.384
  115PROX   H1125480   9.571  13.692   9.395
  115PROX   H1325481   9.524  13.548   9.488
  115PROX    C225482   9.655  13.514   9.313
  115PROX   H2125483   9.658  13.545   9.207
  115PROX    C325484   9.631  13.359   9.297
  115PROX   H3125485   9.730  13.327   9.257
  115PROX   H3225486   9.606  13.325   9.400
  115PROX   H3325487   9.554  13.334   9.220
  116PROX    O125488   9.777  13.550   9.377
  116PROX    C125489   9.802  13.483   9.498
  116PROX   H1125490   9.719  13.498   9.571
  116PROX   H1325491   9.825  13.375   9.491
  116PROX    C225492   9.920  13.552   9.574
  116PROX   H2125493   9.907  13.662   9.567
  116PROX    C325494  10.067  13.524   9.528
  116PROX   H3125495  10.095  13.419   9.550
  116PROX   H3225496  10.088  13.553   9.423
  116PROX   H3325497  10.134  13.574   9.601
  117PROX    O125498   9.913  13.535   9.717
  117PROX    C125499   9.909  13.408   9.776
  117PROX   H1125500   9.809  13.389   9.820
  117PROX   H1325501   9.926  13.324   9.705
  117PROX    C225502  10.002  13.389   9.897
  117PROX   H2125503   9.962  13.466   9.967
  117PROX    C325504  10.148  13.421   9.866
  117PROX   H3125505  10.186  13.350   9.789
  117PROX   H3225506  10.163  13.519   9.817
  117PROX   H3325507  10.213  13.415   9.956
  118PROX    O125508   9.975  13.257   9.950
  118PROX    C125509  10.040  13.233  10.074
  118PROX   H1125510  10.149  13.220  10.051
  118PROX   H1325511  10.047  13.323  10.137
  118PROX    C225512   9.984  13.110  10.149
  118PROX   H2125513  10.048  13.089  10.238
  118PROX    C325514   9.974  12.985  10.052
  118PROX   H3125515   9.882  12.999   9.991
  118PROX   H3225516  10.066  12.983   9.991
  118PROX   H3325517   9.971  12.889  10.106
  119PROX    O125518   9.852  13.142  10.186
  119PROX    C125519   9.801  13.067  10.295
  119PROX   H1125520   9.808  12.959  10.272
  119PROX   H1325521   9.857  13.093  10.388
  119PROX    C225522   9.664  13.124  10.320
  119PROX   H2125523   9.666  13.226  10.277
  119PROX    C325524   9.626  13.144  10.465
  119PROX   H3125525   9.680  13.064  10.519
  119PROX   H3225526   9.668  13.233  10.517
  119PROX   H3325527   9.516  13.147  10.481
  120PROX    O125528   9.569  13.041  10.263
  120PROX    C125529   9.581  13.032  10.118
  120PROX   H1125530   9.595  13.129  10.066
  120PROX   H1325531   9.669  12.969  10.094
  120PROX    C225532   9.457  12.952  10.074
  120PROX   H2125533   9.368  13.011  10.104
  120PROX    C325534   9.435  12.808  10.133
  120PROX   H3125535   9.523  12.753  10.092
  120PROX   H3225536   9.458  12.819  10.242
  120PROX   H3325537   9.332  12.772  10.112
  121PROX    O125538   9.463  12.949   9.926
  121PROX    C125539   9.347  12.890   9.871
  121PROX   H1125540   9.342  12.781   9.888
  121PROX   H1325541   9.259  12.942   9.913
  121PROX    C225542   9.346  12.914   9.724
  121PROX   H2125543   9.387  13.014   9.697
  121PROX    C325544   9.203  12.907   9.664
  121PROX   H3125545   9.164  12.806   9.687
  121PROX   H3225546   9.144  12.989   9.708
  121PROX   H3325547   9.206  12.925   9.554
  122PROX    O125548   9.420  12.810   9.650
  122PROX    C125549   9.565  12.818   9.669
  122PROX   H1125550   9.597  12.817   9.776
  122PROX   H1325551   9.618  12.740   9.610
  122PROX    C225552   9.630  12.952   9.616
  122PROX   H2125553   9.606  13.043   9.676
  122PROX    C325554   9.578  12.990   9.483
  122PROX   H3125555   9.469  12.970   9.471
  122PROX   H3225556   9.597  13.096   9.458
  122PROX   H3325557   9.633  12.935   9.403
  123PROX    O125558   9.767  12.931   9.602
  123PROX    C125559   9.847  13.031   9.659
  123PROX   H1125560   9.808  13.134   9.643
  123PROX   H1325561   9.847  13.014   9.768
  123PROX    C225562   9.985  13.018   9.595
  123PROX   H2125563  10.007  12.910   9.589
  123PROX    C325564  10.097  13.087   9.667
  123PROX   H3125565  10.134  13.037   9.759
  123PROX   H3225566  10.176  13.103   9.591
  123PROX   H3325567  10.065  13.191   9.691
  124PROX    O125568   9.986  13.062   9.461
  124PROX    C125569  10.055  12.967   9.378
  124PROX   H1125570  10.158  12.953   9.418
  124PROX   H1325571   9.998  12.872   9.376
  124PROX    C225572  10.046  13.019   9.236
  124PROX   H2125573   9.941  13.047   9.213
  124PROX    C325574  10.083  12.898   9.148
  124PROX   H3125575  10.071  12.923   9.041
  124PROX   H3225576  10.185  12.859   9.167
  124PROX   H3325577  10.012  12.813   9.158
  125PROX    O125578  10.147  13.125   9.206
  125PROX    C125579  10.120  13.240   9.271
  125PROX   H1125580  10.025  13.282   9.233
  125PROX   H1325581  10.119  13.220   9.380
  125PROX    C225582  10.243  13.341   9.257
  125PROX   H2125583  10.210  13.432   9.311
  125PROX    C325584  10.273  13.378   9.111
  125PROX   H3125585  10.174  13.387   9.061
  125PROX   H3225586  10.336  13.466   9.088
  125PROX   H3325587  10.325  13.292   9.065
  126PROX    O125588  10.362  13.290   9.326
  126PROX    C125589  10.477  13.372   9.333
  126PROX   H1125590  10.573  13.316   9.344
  126PROX   H1325591  10.490  13.424   9.236
  126PROX    C225592  10.465  13.469   9.454
  126PROX   H2125593  10.563  13.522   9.454
  126PROX    C325594  10.435  13.411   9.597
  126PROX   H3125595  10.425  13.492   9.672
  126PROX   H3225596  10.340  13.353   9.593
  126PROX   H3325597  10.512  13.339   9.635
  127PROX    O125598  10.377  13.575   9.416
  127PROX    C125599  10.391  13.689   9.502
  127PROX   H1125600  10.342  13.664   9.598
  127PROX   H1325601  10.497  13.712   9.528
  127PROX    C225602  10.326  13.814   9.446
  127PROX   H2125603  10.226  13.783   9.407
  127PROX    C325604  10.405  13.883   9.329
  127PROX   H3125605  10.353  13.950   9.258
  127PROX   H3225606  10.493  13.944   9.357
  127PROX   H3325607  10.448  13.806   9.261
  128PROX    O125608  10.304  13.894   9.557
  128PROX    C125609  10.234  14.011   9.534
  128PROX   H1125610  10.292  14.098   9.572
  128PROX   H1325611  10.217  14.038   9.428
  128PROX    C225612  10.103  14.003   9.625
  128PROX   H2125613  10.052  13.909   9.595
  128PROX    C325614  10.010  14.122   9.606
  128PROX   H3125615  10.057  14.222   9.607
  128PROX   H3225616   9.949  14.115   9.513
  128PROX   H3325617   9.940  14.118   9.692
  129PROX    O125618  10.131  14.006   9.764
  129PROX    C125619  10.130  13.877   9.828
  129PROX   H1125620  10.049  13.819   9.779
  129PROX   H1325621  10.223  13.819   9.808
  129PROX    C225622  10.105  13.886   9.978
  129PROX   H2125623  10.174  13.950  10.037
  129PROX    C325624  10.115  13.750  10.049
  129PROX   H3125625  10.132  13.770  10.157
  129PROX   H3225626  10.023  13.690  10.032
  129PROX   H3325627  10.205  13.696  10.012
  130PROX    O125628   9.972  13.933  10.000
  130PROX    C125629   9.965  14.049  10.076
  130PROX   H1125630  10.016  14.039  10.175
  130PROX   H1325631  10.015  14.134  10.025
  130PROX    C225632   9.824  14.100  10.107
  130PROX   H2125633   9.767  14.010  10.138
  130PROX    C325634   9.768  14.179   9.985
  130PROX   H3125635   9.815  14.276   9.959
  130PROX   H3225636   9.762  14.123   9.889
  130PROX   H3325637   9.666  14.217  10.003
  131PROX    O125638   9.829  14.184  10.225
  131PROX    C125639   9.924  14.290  10.220
  131PROX   H1125640   9.954  14.312  10.115
  131PROX   H1325641   9.861  14.374  10.256
  131PROX    C225642  10.048  14.261  10.304
  131PROX   H2125643  10.028  14.175  10.371
  131PROX    C325644  10.079  14.386  10.387
  131PROX   H3125645  10.105  14.464  10.311
  131PROX   H3225646   9.997  14.420  10.453
  131PROX   H3325647  10.166  14.361  10.452
  132PROX    O125648  10.159  14.230  10.217
  132PROX    C125649  10.264  14.156  10.282
  132PROX   H1125650  10.228  14.099  10.370
  132PROX   H1325651  10.312  14.094  10.203
  132PROX    C225652  10.394  14.246  10.308
  132PROX   H2125653  10.361  14.349  10.336
  132PROX    C325654  10.476  14.277  10.185
  132PROX   H3125655  10.408  14.316  10.106
  132PROX   H3225656  10.557  14.349  10.208
  132PROX   H3325657  10.508  14.176  10.151
  133PROX    O125658  10.467  14.177  10.405
  133PROX    C125659  10.561  14.266  10.478
  133PROX   H1125660  10.656  14.263  10.420
  133PROX   H1325661  10.526  14.371  10.486
  133PROX    C225662  10.596  14.219  10.621
  133PROX   H2125663  10.643  14.306  10.672
  133PROX    C325664  10.704  14.106  10.624
  133PROX   H3125665  10.696  14.050  10.720
  133PROX   H3225666  10.676  14.027  10.551
  133PROX   H3325667  10.810  14.138  10.617
  134PROX    O125668  10.476  14.184  10.689
  134PROX    C125669  10.379  14.285  10.694
  134PROX   H1125670  10.410  14.385  10.731
  134PROX   H1325671  10.344  14.301  10.589
  134PROX    C225672  10.257  14.240  10.783
  134PROX   H2125673  10.290  14.221  10.887
  134PROX    C325674  10.193  14.121  10.713
  134PROX   H3125675  10.250  14.030  10.738
  134PROX   H3225676  10.086  14.122  10.746
  134PROX   H3325677  10.204  14.134  10.603
  135PROX    O125678  10.163  14.354  10.776
  135PROX    C125679  10.178  14.452  10.876
  135PROX   H1125680  10.117  14.412  10.959
  135PROX   H1325681  10.281  14.460  10.917
  135PROX    C225682  10.118  14.590  10.836
  135PROX   H2125683  10.010  14.574  10.820
  135PROX    C325684  10.194  14.652  10.714
  135PROX   H3125685  10.288  14.701  10.748
  135PROX   H3225686  10.212  14.581  10.630
  135PROX   H3325687  10.134  14.736  10.674
  136PROX    O125688  10.125  14.680  10.950
  136PROX    C125689  10.001  14.734  10.993
  136PROX   H1125690   9.939  14.643  11.004
  136PROX   H1325691  10.010  14.782  11.093
  136PROX    C225692   9.938  14.836  10.893
  136PROX   H2125693  10.016  14.895  10.842
  136PROX    C325694   9.841  14.929  10.969
  136PROX   H3125695   9.897  14.982  11.049
  136PROX   H3225696   9.789  14.994  10.894
  136PROX   H3325697   9.774  14.858  11.021
  137PROX    O125698   9.871  14.762  10.796
  137PROX    C125699   9.832  14.840  10.679
  137PROX   H1125700   9.772  14.931  10.699
  137PROX   H1325701   9.918  14.867  10.615
  137PROX    C225702   9.749  14.749  10.593
  137PROX   H2125703   9.657  14.722  10.650
  137PROX    C325704   9.831  14.626  10.551
  137PROX   H3125705   9.854  14.560  10.637
  137PROX   H3225706   9.780  14.562  10.476
  137PROX   H3325707   9.934  14.652  10.518
  138PROX    O125708   9.709  14.820  10.472
  138PROX    C125709   9.597  14.900  10.485
  138PROX   H1125710   9.522  14.839  10.539
  138PROX   H1325711   9.609  14.995  10.541
  138PROX    C225712   9.530  14.934  10.339
  138PROX   H2125713   9.499  14.839  10.291
  138PROX    C325714   9.628  15.006  10.243
  138PROX   H3125715   9.729  14.959  10.248
  138PROX   H3225716   9.596  14.980  10.140
  138PROX   H3325717   9.638  15.114  10.268
  139PROX    O125718   9.416  15.014  10.369
  139PROX    C125719   9.333  15.030  10.256
  139PROX   H1125720   9.301  15.137  10.256
  139PROX   H1325721   9.369  15.012  10.153
  139PROX    C225722   9.208  14.937  10.262
  139PROX   H2125723   9.127  14.969  10.193
  139PROX    C325724   9.158  14.941  10.410
  139PROX   H3125725   9.051  14.912  10.406
  139PROX   H3225726   9.220  14.879  10.478
  139PROX   H3325727   9.156  15.046  10.448
  140PROX    O125728   9.236  14.804  10.219
  140PROX    C125729   9.128  14.714  10.230
  140PROX   H1125730   9.122  14.699  10.340
  140PROX   H1325731   9.035  14.763  10.195
  140PROX    C225732   9.150  14.591  10.145
  140PROX   H2125733   9.240  14.536  10.178
  140PROX    C325734   9.175  14.629  10.000
  140PROX   H3125735   9.093  14.697   9.967
  140PROX   H3225736   9.266  14.691   9.991
  140PROX   H3325737   9.181  14.551   9.921
  141PROX    O125738   9.030  14.505  10.156
  141PROX    C125739   9.027  14.456  10.289
  141PROX   H1125740   9.131  14.459  10.330
  141PROX   H1325741   8.970  14.525  10.355
  141PROX    C225742   8.961  14.307  10.291
  141PROX   H2125743   9.022  14.233  10.236
  141PROX    C325744   8.823  14.303  10.225
  141PROX   H3125745   8.828  14.318  10.115
  141PROX   H3225746   8.778  14.206  10.256
  141PROX   H3325747   8.756  14.381  10.265
  142PROX    O125748   8.945  14.259  10.425
  142PROX    C125749   9.065  14.269  10.493
  142PROX   H1125750   9.148  14.227  10.432
  142PROX   H1325751   9.092  14.373  10.522
  142PROX    C225752   9.077  14.195  10.624
  142PROX   H2125753   9.088  14.089  10.594
  142PROX    C325754   8.957  14.195  10.723
  142PROX   H3125755   8.866  14.199  10.658
  142PROX   H3225756   8.954  14.112  10.796
  142PROX   H3325757   8.952  14.292  10.776
  143PROX    O125758   9.190  14.249  10.694
  143PROX    C125759   9.214  14.178  10.813
  143PROX   H1125760   9.178  14.250  10.890
  143PROX   H1325761   9.162  14.080  10.813
  143PROX    C225762   9.359  14.137  10.831
  143PROX   H2125763   9.428  14.214  10.791
  143PROX    C325764   9.373  14.000  10.756
  143PROX   H3125765   9.341  13.916  10.822
  143PROX   H3225766   9.319  14.005  10.659
  143PROX   H3325767   9.480  13.971  10.748
  144PROX    O125768   9.371  14.099  10.963
  144PROX    C125769   9.504  14.057  10.998
  144PROX   H1125770   9.530  13.954  10.964
  144PROX   H1325771   9.582  14.127  10.961
  144PROX    C225772   9.539  14.057  11.151
  144PROX   H2125773   9.463  13.994  11.203
  144PROX    C325774   9.506  14.197  11.212
  144PROX   H3125775   9.408  14.235  11.176
  144PROX   H3225776   9.511  14.183  11.322
  144PROX   H3325777   9.582  14.273  11.185
  145PROX    O125778   9.672  14.011  11.177
  145PROX    C125779   9.694  13.975  11.312
  145PROX   H1125780   9.717  14.067  11.370
  145PROX   H1325781   9.599  13.934  11.353
  145PROX    C225782   9.808  13.868  11.328
  145PROX   H2125783   9.790  13.781  11.260
  145PROX    C325784   9.813  13.825  11.479
  145PROX   H3125785   9.875  13.733  11.482
  145PROX   H3225786   9.847  13.908  11.543
  145PROX   H3325787   9.712  13.796  11.516
  146PROX    O125788   9.927  13.925  11.280
  146PROX    C125789  10.019  13.825  11.241
  146PROX   H1125790  10.032  13.746  11.319
  146PROX   H1325791   9.970  13.786  11.149
  146PROX    C225792  10.153  13.892  11.206
  146PROX   H2125793  10.200  13.936  11.296
  146PROX    C325794  10.149  13.994  11.098
  146PROX   H3125795  10.100  14.089  11.128
  146PROX   H3225796  10.249  14.021  11.058
  146PROX   H3325797  10.089  13.963  11.009
  147PROX    O125798  10.251  13.797  11.161
  147PROX    C125799  10.223  13.728  11.045
  147PROX   H1125800  10.120  13.752  11.011
  147PROX   H1325801  10.300  13.763  10.973
  147PROX    C225802  10.220  13.576  11.073
  147PROX   H2125803  10.312  13.543  11.126
  147PROX    C325804  10.228  13.498  10.938
  147PROX   H3125805  10.152  13.417  10.935
  147PROX   H3225806  10.214  13.562  10.848
  147PROX   H3325807  10.330  13.457  10.932
  148PROX    O125808  10.103  13.548  11.142
  148PROX    C125809  10.114  13.438  11.239
  148PROX   H1125810  10.176  13.358  11.191
  148PROX   H1325811  10.157  13.491  11.327
  148PROX    C225812   9.977  13.380  11.267
  148PROX   H2125813   9.947  13.344  11.166
  148PROX    C325814   9.875  13.492  11.299
  148PROX   H3125815   9.913  13.546  11.387
  148PROX   H3225816   9.869  13.554  11.207
  148PROX   H3325817   9.769  13.461  11.314
  149PROX    O125818   9.978  13.274  11.359
  149PROX    C125819  10.016  13.154  11.305
  149PROX   H1125820  10.095  13.160  11.227
  149PROX   H1325821  10.065  13.093  11.384
  149PROX    C225822   9.895  13.075  11.256
  149PROX   H2125823   9.847  13.134  11.175
  149PROX    C325824   9.781  13.069  11.357
  149PROX   H3125825   9.695  13.016  11.312
  149PROX   H3225826   9.814  13.019  11.451
  149PROX   H3325827   9.749  13.172  11.383
  150PROX    O125828   9.936  12.955  11.207
  150PROX    C125829   9.839  12.852  11.194
  150PROX   H1125830   9.784  12.841  11.290
  150PROX   H1325831   9.766  12.879  11.114
  150PROX    C225832   9.907  12.713  11.170
  150PROX   H2125833   9.969  12.692  11.260
  150PROX    C325834  10.006  12.717  11.049
  150PROX   H3125835  10.085  12.638  11.048
  150PROX   H3225836   9.954  12.735  10.953
  150PROX   H3325837  10.055  12.815  11.060
  151PROX    O125838   9.810  12.603  11.133
  151PROX    C125839   9.738  12.558  11.249
  151PROX   H1125840   9.741  12.447  11.241
  151PROX   H1325841   9.779  12.589  11.347
  151PROX    C225842   9.591  12.601  11.256
  151PROX   H2125843   9.580  12.711  11.255
  151PROX    C325844   9.536  12.533  11.386
  151PROX   H3125845   9.573  12.429  11.392
  151PROX   H3225846   9.582  12.589  11.470
  151PROX   H3325847   9.425  12.530  11.392
  152PROX    O125848   9.509  12.544  11.151
  152PROX    C125849   9.422  12.644  11.089
  152PROX   H1125850   9.359  12.694  11.165
  152PROX   H1325851   9.483  12.729  11.050
  152PROX    C225852   9.327  12.580  10.976
  152PROX   H2125853   9.264  12.661  10.934
  152PROX    C325854   9.224  12.485  11.042
  152PROX   H3125855   9.151  12.460  10.963
  152PROX   H3225856   9.270  12.391  11.080
  152PROX   H3325857   9.167  12.541  11.119
  153PROX    O125858   9.397  12.510  10.879
  153PROX    C125859   9.424  12.590  10.767
  153PROX   H1125860   9.364  12.560  10.678
  153PROX   H1325861   9.418  12.699  10.784
  153PROX    C225862   9.571  12.576  10.725
  153PROX   H2125863   9.595  12.470  10.704
  153PROX    C325864   9.656  12.621  10.842
  153PROX   H3125865   9.650  12.543  10.921
  153PROX   H3225866   9.762  12.638  10.814
  153PROX   H3325867   9.614  12.715  10.885
  154PROX    O125868   9.590  12.654  10.614
  154PROX    C125869   9.661  12.597  10.509
  154PROX   H1125870   9.745  12.538  10.551
  154PROX   H1325871   9.597  12.524  10.454
  154PROX    C225872   9.721  12.704  10.417
  154PROX   H2125873   9.655  12.793  10.414
  154PROX    C325874   9.725  12.654  10.270
  154PROX   H3125875   9.798  12.572  10.252
  154PROX   H3225876   9.623  12.620  10.243
  154PROX   H3325877   9.768  12.738  10.211
  155PROX    O125878   9.858  12.731  10.454
  155PROX    C125879   9.870  12.814  10.569
  155PROX   H1125880   9.814  12.905  10.539
  155PROX   H1325881   9.810  12.775  10.653
  155PROX    C225882  10.013  12.834  10.615
  155PROX   H2125883  10.069  12.871  10.527
  155PROX    C325884  10.072  12.699  10.668
  155PROX   H3125885   9.986  12.647  10.716
  155PROX   H3225886  10.106  12.626  10.591
  155PROX   H3325887  10.155  12.716  10.739
  156PROX    O125888  10.011  12.932  10.716
  156PROX    C125889  10.000  13.063  10.661
  156PROX   H1125890  10.087  13.075  10.593
  156PROX   H1325891   9.899  13.073  10.615
  156PROX    C225892  10.014  13.170  10.767
  156PROX   H2125893  10.113  13.147  10.813
  156PROX    C325894   9.905  13.166  10.872
  156PROX   H3125895   9.903  13.074  10.934
  156PROX   H3225896   9.905  13.253  10.940
  156PROX   H3325897   9.809  13.181  10.818
  157PROX    O125898  10.011  13.303  10.722
  157PROX    C125899  10.121  13.355  10.643
  157PROX   H1125900  10.136  13.461  10.673
  157PROX   H1325901  10.212  13.296  10.668
  157PROX    C225902  10.092  13.352  10.491
  157PROX   H2125903  10.070  13.247  10.465
  157PROX    C325904  10.211  13.412  10.424
  157PROX   H3125905  10.187  13.505  10.367
  157PROX   H3225906  10.293  13.444  10.492
  157PROX   H3325907  10.248  13.338  10.350
  158PROX    O125908   9.982  13.443  10.470
  158PROX    C125909   9.931  13.442  10.336
  158PROX   H1125910  10.001  13.495  10.268
  158PROX   H1325911   9.910  13.334  10.323
  158PROX    C225912   9.792  13.504  10.316
  158PROX   H2125913   9.718  13.449  10.379
  158PROX    C325914   9.729  13.488  10.175
  158PROX   H3125915   9.797  13.529  10.097
  158PROX   H3225916   9.713  13.381  10.152
  158PROX   H3325917   9.631  13.539  10.165
  159PROX    O125918   9.799  13.640  10.332
  159PROX    C125919   9.804  13.679  10.465
  159PROX   H1125920   9.705  13.652  10.509
  159PROX   H1325921   9.887  13.627  10.516
  159PROX    C225922   9.823  13.828  10.471
  159PROX   H2125923   9.735  13.876  10.423
  159PROX    C325924   9.960  13.864  10.404
  159PROX   H3125925   9.985  13.967  10.438
  159PROX   H3225926  10.041  13.800  10.444
  159PROX   H3325927   9.951  13.843  10.295
  160PROX    O125928   9.836  13.872  10.606
  160PROX    C125929   9.716  13.875  10.681
  160PROX   H1125930   9.686  13.977  10.714
  160PROX   H1325931   9.635  13.832  10.618
  160PROX    C225932   9.730  13.782  10.804
  160PROX   H2125933   9.630  13.759  10.848
  160PROX    C325934   9.820  13.847  10.913
  160PROX   H3125935   9.812  13.958  10.907
  160PROX   H3225936   9.783  13.832  11.016
  160PROX   H3325937   9.929  13.830  10.897
  161PROX    O125938   9.790  13.655  10.766
  161PROX    C125939   9.804  13.554  10.869
  161PROX   H1125940   9.888  13.486  10.845
  161PROX   H1325941   9.819  13.596  10.971
  161PROX    C225942   9.675  13.471  10.854
  161PROX   H2125943   9.692  13.369  10.895
  161PROX    C325944   9.623  13.452  10.706
  161PROX   H3125945   9.543  13.374  10.713
  161PROX   H3225946   9.572  13.544  10.670
  161PROX   H3325947   9.712  13.424  10.646
  162PROX    O125948   9.583  13.536  10.940
  162PROX    C125949   9.455  13.473  10.979
  162PROX   H1125950   9.377  13.490  10.902
  162PROX   H1325951   9.468  13.366  11.006
  162PROX    C225952   9.402  13.535  11.105
  162PROX   H2125953   9.372  13.642  11.096
  162PROX    C325954   9.493  13.509  11.226
  162PROX   H3125955   9.437  13.525  11.320
  162PROX   H3225956   9.547  13.411  11.226
  162PROX   H3325957   9.566  13.592  11.228
  163PROX    O125958   9.281  13.469  11.143
  163PROX    C125959   9.169  13.509  11.056
  163PROX   H1125960   9.151  13.619  11.060
  163PROX   H1325961   9.187  13.480  10.950
  163PROX    C225962   9.047  13.433  11.097
  163PROX   H2125963   9.028  13.451  11.205
  163PROX    C325964   9.053  13.279  11.079
  163PROX   H3125965   8.959  13.230  11.112
  163PROX   H3225966   9.083  13.265  10.973
  163PROX   H3325967   9.141  13.229  11.123
  164PROX    O125968   8.935  13.466  11.016
  164PROX    C125969   8.821  13.526  11.088
  164PROX   H1125970   8.728  13.505  11.032
  164PROX   H1325971   8.802  13.469  11.182
  164PROX    C225972   8.835  13.680  11.122
  164PROX   H2125973   8.765  13.688  11.208
  164PROX    C325974   8.775  13.748  11.002
  164PROX   H3125975   8.665  13.734  10.997
  164PROX   H3225976   8.810  13.852  10.982
  164PROX   H3325977   8.809  13.695  10.911
  165PROX    O125978   8.969  13.727  11.149
  165PROX    C125979   8.969  13.838  11.235
  165PROX   H1125980   8.885  13.907  11.211
  165PROX   H1325981   8.953  13.811  11.342
  165PROX    C225982   9.113  13.899  11.233
  165PROX   H2125983   9.149  13.894  11.128
  165PROX    C325984   9.219  13.829  11.320
  165PROX   H3125985   9.319  13.877  11.312
  165PROX   H3225986   9.183  13.834  11.425
  165PROX   H3325987   9.228  13.722  11.291
  166ETHO    O125988   9.113  14.038  11.280
  166ETHO    C125989   9.082  14.135  11.178
  166ETHO   H1125990   8.978  14.112  11.146
  166ETHO   H1325991   9.149  14.108  11.094
  166ETHO    C225992   9.112  14.271  11.226
  166ETHO   H2125993   9.139  14.348  11.151
  166ETHO   H2325994   9.203  14.280  11.291
  167ETHO    O125995   9.000  14.326  11.306
  167ETHO    C125996   9.025  14.456  11.353
  167ETHO   H1125997   9.127  14.462  11.396
  167ETHO   H1325998   8.992  14.531  11.278
  167ETHO    C225999   8.925  14.477  11.472
  167ETHO   H2126000   8.949  14.573  11.524
  167ETHO   H2326001   8.907  14.392  11.540
  168ETHO    O126002   8.804  14.512  11.404
  168ETHO    C126003   8.699  14.519  11.497
  168ETHO   H1126004   8.732  14.583  11.582
  168ETHO   H1326005   8.680  14.417  11.538
  168ETHO    C226006   8.573  14.583  11.430
  168ETHO   H2126007   8.609  14.670  11.370
  168ETHO   H2326008   8.497  14.619  11.503
  169ETHO    O126009   8.501  14.494  11.350
  169ETHO    C126010   8.558  14.470  11.224
  169ETHO   H1126011   8.568  14.569  11.176
  169ETHO   H1326012   8.658  14.422  11.226
  169ETHO    C226013   8.473  14.368  11.150
  169ETHO   H2126014   8.374  14.417  11.136
  169ETHO   H2326015   8.440  14.282  11.212
  170ETHO    O126016   8.523  14.321  11.029
  170ETHO    C126017   8.515  14.417  10.926
  170ETHO   H1126018   8.524  14.521  10.965
  170ETHO   H1326019   8.412  14.408  10.886
  170ETHO    C226020   8.624  14.387  10.824
  170ETHO   H2126021   8.597  14.285  10.790
  170ETHO   H2326022   8.719  14.381  10.881
  171ETHO    O126023   8.606  14.493  10.734
  171ETHO    C126024   8.673  14.465  10.617
  171ETHO   H1126025   8.780  14.449  10.644
  171ETHO   H1326026   8.641  14.366  10.577
  171ETHO    C226027   8.664  14.571  10.512
  171ETHO   H2126028   8.744  14.553  10.436
  171ETHO   H2326029   8.688  14.668  10.560
  172ETHO    O126030   8.537  14.570  10.442
  172ETHO    C126031   8.543  14.655  10.327
  172ETHO   H1126032   8.446  14.654  10.273
  172ETHO   H1326033   8.615  14.605  10.259
  172ETHO    C226034   8.584  14.801  10.345
  172ETHO   H2126035   8.563  14.831  10.450
  172ETHO   H2326036   8.523  14.867  10.281
  173ETHO    O126037   8.720  14.830  10.322
  173ETHO    C126038   8.742  14.973  10.317
  173ETHO   H1126039   8.840  15.005  10.276
  173ETHO   H1326040   8.678  15.026  10.244
  173ETHO    C226041   8.729  15.033  10.451
  173ETHO   H2126042   8.779  14.963  10.521
  173ETHO   H2326043   8.788  15.127  10.462
  174ETHO    O126044   8.598  15.062  10.493
  174ETHO    C126045   8.598  15.113  10.626
  174ETHO   H1126046   8.694  15.093  10.678
  174ETHO   H1326047   8.584  15.222  10.613
  174ETHO    C226048   8.478  15.064  10.717
  174ETHO   H2126049   8.500  15.091  10.822
  174ETHO   H2326050   8.466  14.955  10.701
  175ETHO    O126051   8.362  15.145  10.686
  175ETHO    C126052   8.244  15.090  10.749
  175ETHO   H1126053   8.279  15.046  10.845
  175ETHO   H1326054   8.179  15.179  10.763
  175ETHO    C226055   8.165  14.985  10.665
  175ETHO   H2126056   8.146  15.023  10.562
  175ETHO   H2326057   8.064  14.966  10.706
  176ETHO    O126058   8.218  14.859  10.666
  176ETHO    C126059   8.271  14.823  10.537
  176ETHO   H1126060   8.321  14.917  10.505
  176ETHO   H1326061   8.358  14.756  10.547
  176ETHO    C226062   8.175  14.763  10.443
  176ETHO   H2126063   8.232  14.757  10.348
  176ETHO   H2326064   8.088  14.830  10.429
  177ETHO    O126065   8.128  14.635  10.488
  177ETHO    C126066   8.051  14.576  10.387
  177ETHO   H1126067   8.023  14.650  10.309
  177ETHO   H1326068   7.959  14.537  10.435
  177ETHO    C226069   8.125  14.453  10.329
  177ETHO   H2126070   8.052  14.386  10.281
  177ETHO   H2326071   8.177  14.395  10.409
  178ETHO    O126072   8.218  14.489  10.217
  178ETHO    C126073   8.311  14.382  10.191
  178ETHO   H1126074   8.368  14.358  10.283
  178ETHO   H1326075   8.246  14.293  10.179
  178ETHO    C226076   8.403  14.400  10.075
  178ETHO   H2126077   8.476  14.316  10.073
  178ETHO   H2326078   8.458  14.495  10.089
  179ETHO    O126079   8.342  14.397   9.943
  179ETHO    C126080   8.286  14.519   9.905
  179ETHO   H1126081   8.363  14.595   9.931
  179ETHO   H1326082   8.192  14.547   9.956
  179ETHO    C226083   8.276  14.529   9.748
  179ETHO   H2126084   8.379  14.504   9.715
  179ETHO   H2326085   8.257  14.637   9.732
  180ETHO    O126086   8.173  14.449   9.701
  180ETHO    C126087   8.169  14.452   9.555
  180ETHO   H1126088   8.167  14.556   9.516
  180ETHO   H1326089   8.264  14.408   9.517
  180ETHO    C226090   8.062  14.371   9.487
  180ETHO   H2126091   8.044  14.270   9.528
  180ETHO   H2326092   8.081  14.365   9.377
  181ETHO    O126093   7.946  14.445   9.489
  181ETHO    C126094   7.886  14.444   9.616
  181ETHO   H1126095   7.927  14.522   9.684
  181ETHO   H1326096   7.902  14.348   9.670
  181ETHO    C226097   7.736  14.454   9.610
  181ETHO   H2126098   7.700  14.436   9.714
  181ETHO   H2326099   7.677  14.380   9.551
  182ETHO    O126100   7.700  14.579   9.553
  182ETHO    C126101   7.575  14.626   9.593
  182ETHO   H1126102   7.532  14.692   9.515
  182ETHO   H1326103   7.505  14.540   9.603
  182ETHO    C226104   7.578  14.705   9.722
  182ETHO   H2126105   7.624  14.647   9.805
  182ETHO   H2326106   7.471  14.702   9.750
  183ETHO    O126107   7.620  14.845   9.711
  183ETHO    C126108   7.636  14.900   9.839
  183ETHO   H1126109   7.740  14.890   9.877
  183ETHO   H1326110   7.572  14.844   9.911
  183ETHO    C226111   7.580  15.040   9.838
  183ETHO   H2126112   7.585  15.074   9.943
  183ETHO   H2326113   7.474  15.048   9.806
  184ETHO    O126114   7.676  15.109   9.756
  184ETHO    C126115   7.631  15.236   9.717
  184ETHO   H1126116   7.698  15.272   9.636
  184ETHO   H1326117   7.527  15.220   9.679
  184ETHO    C226118   7.626  15.338   9.831
  184ETHO   H2126119   7.586  15.296   9.926
  184ETHO   H2326120   7.566  15.429   9.813
  185ETHO    O126121   7.761  15.385   9.851
  185ETHO    C126122   7.813  15.474   9.755
  185ETHO   H1126123   7.807  15.438   9.650
  185ETHO   H1326124   7.754  15.568   9.762
  185ETHO    C226125   7.962  15.519   9.781
  185ETHO   H2126126   7.986  15.554   9.884
  185ETHO   H2326127   7.990  15.599   9.709
  186ETHO    O126128   8.056  15.414   9.753
  186ETHO    C126129   8.190  15.447   9.783
  186ETHO   H1126130   8.266  15.414   9.709
  186ETHO   H1326131   8.215  15.556   9.790
  186ETHO    C226132   8.236  15.370   9.908
  186ETHO   H2126133   8.309  15.291   9.881
  186ETHO   H2326134   8.151  15.309   9.945
  187ETHO    O126135   8.262  15.461  10.022
  187ETHO    C126136   8.346  15.405  10.123
  187ETHO   H1126137   8.309  15.315  10.176
  187ETHO   H1326138   8.438  15.372  10.069
  187ETHO    C226139   8.386  15.505  10.226
  187ETHO   H2126140   8.424  15.591  10.168
  187ETHO   H2326141   8.465  15.463  10.293
  188ETHO    O126142   8.288  15.543  10.322
  188ETHO    C126143   8.338  15.626  10.432
  188ETHO   H1126144   8.373  15.726  10.400
  188ETHO   H1326145   8.428  15.583  10.479
  188ETHO    C226146   8.208  15.656  10.514
  188ETHO   H2126147   8.132  15.691  10.441
  188ETHO   H2326148   8.233  15.734  10.589
  189ETHO    O126149   8.168  15.547  10.593
  189ETHO    C126150   8.040  15.570  10.657
  189ETHO   H1126151   8.056  15.643  10.739
  189ETHO   H1326152   7.972  15.616  10.582
  189ETHO    C226153   7.965  15.442  10.698
  189ETHO   H2126154   7.875  15.457  10.762
  189ETHO   H2326155   8.034  15.377  10.756
  190ETHO    O126156   7.930  15.358  10.585
  190ETHO    C126157   7.860  15.241  10.614
  190ETHO   H1126158   7.754  15.259  10.639
  190ETHO   H1326159   7.911  15.202  10.705
  190ETHO    C226160   7.869  15.129  10.505
  190ETHO   H2126161   7.965  15.118  10.450
  190ETHO   H2326162   7.794  15.155  10.427
  191ETHO    O126163   7.847  15.001  10.563
  191ETHO    C126164   7.769  14.903  10.490
  191ETHO   H1126165   7.670  14.950  10.473
  191ETHO   H1326166   7.821  14.870  10.398
  191ETHO    C226167   7.742  14.776  10.574
  191ETHO   H2126168   7.841  14.744  10.611
  191ETHO   H2326169   7.690  14.709  10.501
  192ETHO    O126170   7.644  14.800  10.676
  192ETHO    C126171   7.701  14.794  10.806
  192ETHO   H1126172   7.783  14.867  10.797
  192ETHO   H1326173   7.728  14.692  10.842
  192ETHO    C226174   7.616  14.863  10.915
  192ETHO   H2126175   7.663  14.864  11.015
  192ETHO   H2326176   7.515  14.816  10.915
  193ETHO    O126177   7.604  15.001  10.885
  193ETHO    C126178   7.509  15.063  10.972
  193ETHO   H1126179   7.411  15.019  10.940
  193ETHO   H1326180   7.522  15.038  11.079
  193ETHO    C226181   7.511  15.221  10.958
  193ETHO   H2126182   7.416  15.260  11.000
  193ETHO   H2326183   7.509  15.236  10.848
  194ETHO    O126184   7.629  15.286  11.009
  194ETHO    C126185   7.629  15.421  10.966
  194ETHO   H1126186   7.528  15.463  10.985
  194ETHO   H1326187   7.651  15.421  10.857
  194ETHO    C226188   7.727  15.502  11.050
  194ETHO   H2126189   7.701  15.485  11.157
  194ETHO   H2326190   7.713  15.611  11.035
  195ETHO    O126191   7.865  15.472  11.028
  195ETHO    C126192   7.956  15.541  11.116
  195ETHO   H1126193   7.915  15.639  11.147
  195ETHO   H1326194   7.966  15.499  11.219
  195ETHO    C226195   8.103  15.563  11.072
  195ETHO   H2126196   8.141  15.646  11.136
  195ETHO   H2326197   8.105  15.584  10.963
  196ETHO    O126198   8.180  15.450  11.089
  196ETHO    C126199   8.293  15.449  11.004
  196ETHO   H1126200   8.258  15.404  10.909
  196ETHO   H1326201   8.347  15.543  10.980
  196ETHO    C226202   8.406  15.354  11.065
  196ETHO   H2126203   8.446  15.406  11.154
  196ETHO   H2326204   8.487  15.360  10.989
  197ETHO    O126205   8.376  15.215  11.081
  197ETHO    C126206   8.456  15.159  11.183
  197ETHO   H1126207   8.556  15.207  11.186
  197ETHO   H1326208   8.394  15.172  11.274
  197ETHO    C226209   8.477  15.006  11.176
  197ETHO   H2126210   8.376  14.964  11.156
  197ETHO   H2326211   8.539  14.965  11.258
  198ETHO    O126212   8.555  14.963  11.059
  198ETHO    C126213   8.549  14.828  11.032
  198ETHO   H1126214   8.521  14.771  11.123
  198ETHO   H1326215   8.477  14.819  10.948
  198ETHO    C226216   8.669  14.771  10.959
  198ETHO   H2126217   8.723  14.853  10.906
  198ETHO   H2326218   8.631  14.691  10.892
  199ETHO    O126219   8.760  14.714  11.058
  199ETHO    C126220   8.901  14.757  11.038
  199ETHO   H1126221   8.947  14.724  11.134
  199ETHO   H1326222   8.914  14.868  11.035
  199ETHO    C226223   8.979  14.673  10.930
  199ETHO   H2126224   8.961  14.564  10.944
  199ETHO   H2326225   9.087  14.688  10.955
  200ETHO    O126226   8.957  14.717  10.796
  200ETHO    C126227   9.015  14.625  10.705
  200ETHO   H1126228   8.991  14.526  10.751
  200ETHO   H1326229   8.958  14.644  10.612
  200ETHO    C226230   9.167  14.640  10.681
  200ETHO   H2126231   9.223  14.599  10.767
  200ETHO   H2326232   9.200  14.743  10.656
  201ETHO    O126233   9.220  14.565  10.574
  201ETHO    C126234   9.358  14.563  10.565
  201ETHO   H1126235   9.381  14.537  10.671
  201ETHO   H1326236   9.402  14.661  10.535
  201ETHO    C226237   9.407  14.435  10.492
  201ETHO   H2126238   9.346  14.347  10.519
  201ETHO   H2326239   9.514  14.421  10.518
  202ETHO    O126240   9.408  14.462  10.350
  202ETHO    C126241   9.527  14.512  10.310
  202ETHO   H1126242   9.557  14.602  10.368
  202ETHO   H1326243   9.608  14.438  10.329
  202ETHO    C226244   9.527  14.555  10.164
  202ETHO   H2126245   9.623  14.602  10.136
  202ETHO   H2326246   9.445  14.630  10.156
  203ETHO    O126247   9.508  14.440  10.077
  203ETHO    C126248   9.506  14.481   9.935
  203ETHO   H1126249   9.600  14.533   9.908
  203ETHO   H1326250   9.423  14.554   9.921
  203ETHO    C226251   9.472  14.368   9.840
  203ETHO   H2126252   9.376  14.321   9.872
  203ETHO   H2326253   9.550  14.288   9.844
  204ETHO    O126254   9.459  14.418   9.703
  204ETHO    C126255   9.387  14.319   9.632
  204ETHO   H1126256   9.447  14.225   9.641
  204ETHO   H1326257   9.292  14.285   9.679
  204ETHO    C226258   9.356  14.348   9.479
  204ETHO   H2126259   9.328  14.246   9.445
  204ETHO   H2326260   9.447  14.381   9.425
  205ETHO    O126261   9.244  14.437   9.469
  205ETHO    C126262   9.282  14.574   9.493
  205ETHO   H1126263   9.292  14.629   9.397
  205ETHO   H1326264   9.384  14.580   9.537
  205ETHO    C226265   9.177  14.628   9.583
  205ETHO   H2126266   9.213  14.725   9.624
  205ETHO   H2326267   9.160  14.565   9.673
  206ETHO    O126268   9.059  14.656   9.510
  206ETHO    C126269   8.952  14.692   9.588
  206ETHO   H1126270   8.866  14.696   9.519
  206ETHO   H1326271   8.934  14.612   9.663
  206ETHO    C226272   8.942  14.826   9.657
  206ETHO   H2126273   8.946  14.907   9.581
  206ETHO   H2326274   8.849  14.841   9.716
  207ETHO    O126275   9.045  14.840   9.748
  207ETHO    C126276   9.067  14.966   9.798
  207ETHO   H1126277   8.984  14.996   9.865
  207ETHO   H1326278   9.059  15.043   9.718
  207ETHO    C226279   9.195  14.972   9.886
  207ETHO   H2126280   9.277  14.929   9.825
  207ETHO   H2326281   9.181  14.912   9.979
  208ETHO    O126282   9.216  15.111   9.909
  208ETHO    C126283   9.291  15.162   9.801
  208ETHO   H1126284   9.399  15.136   9.806
  208ETHO   H1326285   9.266  15.113   9.705
  208ETHO    C226286   9.269  15.315   9.793
  208ETHO   H2126287   9.335  15.364   9.719
  208ETHO   H2326288   9.280  15.363   9.893
  209ETHO    O126289   9.133  15.344   9.751
  209ETHO    C126290   9.090  15.479   9.780
  209ETHO   H1126291   9.163  15.559   9.756
  209ETHO   H1326292   9.070  15.493   9.889
  209ETHO    C226293   8.968  15.516   9.695
  209ETHO   H2126294   8.987  15.493   9.587
  209ETHO   H2326295   8.945  15.624   9.709
  210ETHO    O126296   8.852  15.447   9.735
  210ETHO    C126297   8.731  15.512   9.698
  210ETHO   H1126298   8.652  15.487   9.772
  210ETHO   H1326299   8.737  15.622   9.714
  210ETHO    C226300   8.674  15.487   9.559
  210ETHO   H2126301   8.761  15.491   9.490
  210ETHO   H2326302   8.600  15.566   9.533
  211ETHO    O126303   8.623  15.361   9.544
  211ETHO    C126304   8.540  15.357   9.430
  211ETHO   H1126305   8.443  15.398   9.465
  211ETHO   H1326306   8.584  15.425   9.354
  211ETHO    C226307   8.541  15.216   9.372
  211ETHO   H2126308   8.650  15.196   9.363
  211ETHO   H2326309   8.502  15.226   9.268
  212ETHO    O126310   8.475  15.119   9.457
  212ETHO    C126311   8.331  15.114   9.448
  212ETHO   H1126312   8.289  15.214   9.476
  212ETHO   H1326313   8.303  15.086   9.344
  212ETHO    C226314   8.276  15.007   9.538
  212ETHO   H2126315   8.333  14.911   9.542
  212ETHO   H2326316   8.168  14.988   9.518
  213ETHO    O126317   8.282  15.049   9.673
  213ETHO    C126318   8.221  14.951   9.760
  213ETHO   H1126319   8.114  14.980   9.766
  213ETHO   H1326320   8.231  14.849   9.718
  213ETHO    C226321   8.281  14.943   9.900
  213ETHO   H2126322   8.230  14.865   9.961
  213ETHO   H2326323   8.273  15.041   9.953
  214ETHO    O126324   8.416  14.914   9.869
  214ETHO    C126325   8.498  14.911   9.991
  214ETHO   H1126326   8.446  14.862  10.076
  214ETHO   H1326327   8.517  15.015  10.024
  214ETHO    C226328   8.637  14.857   9.952
  214ETHO   H2126329   8.724  14.877  10.018
  214ETHO   H2326330   8.643  14.896   9.848
  215ETHO    O126331   8.629  14.713   9.932
  215ETHO    C126332   8.761  14.658   9.961
  215ETHO   H1126333   8.834  14.720   9.905
  215ETHO   H1326334   8.782  14.663  10.070
  215ETHO    C226335   8.755  14.513   9.914
  215ETHO   H2126336   8.664  14.461   9.953
  215ETHO   H2326337   8.844  14.470   9.965
  216ETHO    O126338   8.764  14.497   9.769
  216ETHO    C126339   8.629  14.494   9.711
  216ETHO   H1126340   8.573  14.587   9.736
  216ETHO   H1326341   8.572  14.406   9.749
  216ETHO    C226342   8.639  14.479   9.558
  216ETHO   H2126343   8.725  14.411   9.545
  216ETHO   H2326344   8.654  14.579   9.514
  217ETHO    O126345   8.521  14.417   9.515
  217ETHO    C126346   8.530  14.363   9.386
  217ETHO   H1126347   8.601  14.277   9.390
  217ETHO   H1326348   8.438  14.307   9.361
  217ETHO    C226349   8.565  14.457   9.280
  217ETHO   H2126350   8.504  14.550   9.281
  217ETHO   H2326351   8.545  14.411   9.181
  218ETHO    O126352   8.703  14.493   9.277
  218ETHO    C126353   8.732  14.577   9.154
  218ETHO   H1126354   8.679  14.675   9.161
  218ETHO   H1326355   8.698  14.519   9.066
  218ETHO    C226356   8.876  14.627   9.125
  218ETHO   H2126357   8.914  14.668   9.221
  218ETHO   H2326358   8.864  14.704   9.046
  219ETHO    O126359   8.962  14.523   9.076
  219ETHO    C126360   9.006  14.438   9.178
  219ETHO   H1126361   9.065  14.508   9.240
  219ETHO   H1326362   8.930  14.389   9.243
  219ETHO    C226363   9.100  14.327   9.122
  219ETHO   H2126364   9.148  14.270   9.204
  219ETHO   H2326365   9.171  14.385   9.059
  220ETHO    O126366   9.027  14.246   9.034
  220ETHO    C126367   9.111  14.139   8.987
  220ETHO   H1126368   9.048  14.081   8.917
  220ETHO   H1326369   9.131  14.075   9.076
  220ETHO    C226370   9.245  14.182   8.926
  220ETHO   H2126371   9.239  14.278   8.870
  220ETHO   H2326372   9.281  14.095   8.867
  221ETHO    O126373   9.344  14.203   9.027
  221ETHO    C126374   9.475  14.204   8.973
  221ETHO   H1126375   9.514  14.101   8.960
  221ETHO   H1326376   9.470  14.261   8.878
  221ETHO    C226377   9.569  14.264   9.073
  221ETHO   H2126378   9.571  14.374   9.061
  221ETHO   H2326379   9.670  14.218   9.068
  222ETHO    O126380   9.532  14.247   9.212
  222ETHO    C126381   9.539  14.109   9.261
  222ETHO   H1126382   9.481  14.098   9.355
  222ETHO   H1326383   9.493  14.037   9.190
  222ETHO    C226384   9.677  14.074   9.310
  222ETHO   H2126385   9.725  14.159   9.365
  222ETHO   H2326386   9.739  14.065   9.218
  223ETHO    O126387   9.667  13.954   9.383
  223ETHO    C126388   9.664  13.990   9.518
  223ETHO   H1126389   9.740  14.068   9.540
  223ETHO   H1326390   9.569  14.045   9.538
  223ETHO    C226391   9.674  13.869   9.605
  223ETHO   H2126392   9.764  13.816   9.566
  223ETHO   H2326393   9.587  13.803   9.587
  224ETHO    O126394   9.689  13.903   9.738
  224ETHO    C126395   9.720  13.792   9.824
  224ETHO   H1126396   9.804  13.732   9.782
  224ETHO   H1326397   9.753  13.837   9.920
  224ETHO    C226398   9.599  13.704   9.865
  224ETHO   H2126399   9.509  13.769   9.870
  224ETHO   H2326400   9.633  13.647   9.955
  225ETHO    O126401   9.574  13.605   9.765
  225ETHO    C126402   9.472  13.510   9.806
  225ETHO   H1126403   9.371  13.556   9.800
  225ETHO   H1326404   9.491  13.487   9.913
  225ETHO    C226405   9.472  13.382   9.716
  225ETHO   H2126406   9.439  13.301   9.784
  225ETHO   H2326407   9.575  13.357   9.680
  226ETHO    O126408   9.373  13.397   9.618
  226ETHO    C126409   9.340  13.280   9.552
  226ETHO   H1126410   9.417  13.252   9.477
  226ETHO   H1326411   9.327  13.200   9.628
  226ETHO    C226412   9.213  13.312   9.469
  226ETHO   H2126413   9.225  13.404   9.407
  226ETHO   H2326414   9.132  13.335   9.541
  227ETHO    O126415   9.189  13.209   9.378
  227ETHO    C126416   9.069  13.237   9.305
  227ETHO   H1126417   9.090  13.318   9.232
  227ETHO   H1326418   8.989  13.278   9.371
  227ETHO    C226419   9.013  13.110   9.231
  227ETHO   H2126420   9.106  13.068   9.186
  227ETHO   H2326421   8.940  13.142   9.154
  228ETHO    O126422   8.950  13.015   9.318
  228ETHO    C126423   8.866  12.926   9.245
  228ETHO   H1126424   8.777  12.984   9.212
  228ETHO   H1326425   8.917  12.872   9.162
  228ETHO    C226426   8.824  12.806   9.336
  228ETHO   H2126427   8.748  12.746   9.281
  228ETHO   H2326428   8.780  12.842   9.432
  229ETHO    O126429   8.930  12.714   9.369
  229ETHO    C126430   8.882  12.606   9.453
  229ETHO   H1126431   8.801  12.550   9.402
  229ETHO   H1326432   8.845  12.661   9.542
  229ETHO    C226433   9.001  12.513   9.492
  229ETHO   H2126434   9.063  12.557   9.573
  229ETHO   H2326435   9.069  12.490   9.408
  230ETHO    O126436   8.949  12.392   9.534
  230ETHO    C126437   9.048  12.295   9.549
  230ETHO   H1126438   9.122  12.291   9.466
  230ETHO   H1326439   9.108  12.327   9.637
  230ETHO    C226440   8.991  12.153   9.579
  230ETHO   H2126441   8.907  12.163   9.650
  230ETHO   H2326442   9.080  12.097   9.616
  231ETHO    O126443   8.940  12.085   9.463
  231ETHO    C126444   8.901  11.952   9.498
  231ETHO   H1126445   8.967  11.913   9.578
  231ETHO   H1326446   8.925  11.887   9.411
  231ETHO    C226447   8.755  11.929   9.538
  231ETHO   H2126448   8.726  11.822   9.547
  231ETHO   H2326449   8.695  11.971   9.454
  232ETHO    O126450   8.724  12.001   9.660
  232ETHO    C126451   8.582  12.002   9.683
  232ETHO   H1126452   8.531  12.020   9.586
  232ETHO   H1326453   8.551  11.901   9.714
  232ETHO    C226454   8.525  12.107   9.783
  232ETHO   H2126455   8.600  12.120   9.863
  232ETHO   H2326456   8.432  12.059   9.821
  233ETHO    O126457   8.495  12.231   9.724
  233ETHO    C126458   8.605  12.318   9.710
  233ETHO   H1126459   8.665  12.323   9.804
  233ETHO   H1326460   8.666  12.280   9.625
  233ETHO    C226461   8.542  12.456   9.684
  233ETHO   H2126462   8.485  12.438   9.590
  233ETHO   H2326463   8.606  12.542   9.654
  234ETHO    O126464   8.454  12.474   9.792
  234ETHO    C126465   8.377  12.595   9.800
  234ETHO   H1126466   8.329  12.610   9.701
  234ETHO   H1326467   8.289  12.573   9.864
  234ETHO    C226468   8.448  12.721   9.844
  234ETHO   H2126469   8.387  12.813   9.831
  234ETHO   H2326470   8.531  12.740   9.774
  235ETHO    O126471   8.489  12.707   9.974
  235ETHO    C126472   8.564  12.820  10.014
  235ETHO   H1126473   8.503  12.912  10.003
  235ETHO   H1326474   8.594  12.786  10.116
  235ETHO    C226475   8.695  12.851   9.944
  235ETHO   H2126476   8.763  12.766   9.921
  235ETHO   H2326477   8.743  12.923  10.013
  236ETHO    O126478   8.682  12.915   9.818
  236ETHO    C126479   8.803  12.897   9.745
  236ETHO   H1126480   8.786  12.811   9.677
  236ETHO   H1326481   8.895  12.899   9.808
  236ETHO    C226482   8.824  13.024   9.655
  236ETHO   H2126483   8.750  13.037   9.574
  236ETHO   H2326484   8.924  12.993   9.618
  237ETHO    O126485   8.838  13.142   9.736
  237ETHO    C126486   8.844  13.258   9.657
  237ETHO   H1126487   8.915  13.336   9.691
  237ETHO   H1326488   8.875  13.229   9.554
  237ETHO    C226489   8.716  13.337   9.661
  237ETHO   H2126490   8.625  13.277   9.641
  237ETHO   H2326491   8.722  13.410   9.577
  238ETHO    O126492   8.708  13.393   9.792
  238ETHO    C126493   8.582  13.462   9.809
  238ETHO   H1126494   8.506  13.381   9.801
  238ETHO   H1326495   8.581  13.535   9.726
  238ETHO    C226496   8.560  13.543   9.929
  238ETHO   H2126497   8.468  13.605   9.916
  238ETHO   H2326498   8.646  13.611   9.946
  239ETHO    O126499   8.548  13.462  10.047
  239ETHO    C126500   8.487  13.535  10.152
  239ETHO   H1126501   8.559  13.618  10.170
  239ETHO   H1326502   8.395  13.578  10.106
  239ETHO    C226503   8.469  13.451  10.277
  239ETHO   H2126504   8.550  13.377  10.291
  239ETHO   H2326505   8.473  13.509  10.373
  240ETHO    O126506   8.346  13.375  10.280
  240ETHO    C126507   8.330  13.294  10.398
  240ETHO   H1126508   8.222  13.272  10.414
  240ETHO   H1326509   8.367  13.349  10.487
  240ETHO    C226510   8.410  13.160  10.396
  240ETHO   H2126511   8.400  13.116  10.497
  240ETHO   H2326512   8.515  13.195  10.387
  241ETHO    O126513   8.377  13.074  10.290
  241ETHO    C126514   8.263  12.988  10.324
  241ETHO   H1126515   8.265  12.959  10.431
  241ETHO   H1326516   8.174  13.053  10.321
  241ETHO    C226517   8.251  12.871  10.224
  241ETHO   H2126518   8.352  12.825  10.223
  241ETHO   H2326519   8.236  12.913  10.122
  242ETHO    O126520   8.151  12.773  10.242
  242ETHO    C126521   8.138  12.692  10.131
  242ETHO   H1126522   8.231  12.632  10.121
  242ETHO   H1326523   8.120  12.756  10.042
  242ETHO    C226524   8.028  12.593  10.150
  242ETHO   H2126525   8.067  12.511  10.214
  242ETHO   H2326526   7.999  12.543  10.055
  243ETHO    O126527   7.924  12.661  10.212
  243ETHO    C126528   7.825  12.704  10.120
  243ETHO   H1126529   7.862  12.710  10.015
  243ETHO   H1326530   7.749  12.622  10.119
  243ETHO    C226531   7.758  12.837  10.152
  243ETHO   H2126532   7.732  12.833  10.260
  243ETHO   H2326533   7.662  12.842  10.098
  244ETHO    O126534   7.842  12.950  10.121
  244ETHO    C126535   7.784  13.070  10.162
  244ETHO   H1126536   7.744  13.063  10.265
  244ETHO   H1326537   7.714  13.105  10.083
  244ETHO    C226538   7.911  13.162  10.153
  244ETHO   H2126539   7.948  13.154  10.048
  244ETHO   H2326540   7.989  13.113  10.214
  245ETHO    O126541   7.895  13.298  10.192
  245ETHO    C126542   8.021  13.362  10.217
  245ETHO   H1126543   8.087  13.297  10.278
  245ETHO   H1326544   8.082  13.370  10.124
  245ETHO    C226545   8.010  13.498  10.288
  245ETHO   H2126546   7.934  13.568  10.248
  245ETHO   H2326547   8.114  13.536  10.278
  246ETHO    O126548   7.970  13.475  10.421
  246ETHO    C126549   8.004  13.597  10.493
  246ETHO   H1126550   7.932  13.675  10.461
  246ETHO   H1326551   8.106  13.632  10.466
  246ETHO    C226552   8.001  13.574  10.641
  246ETHO   H2126553   7.906  13.520  10.659
  246ETHO   H2326554   8.012  13.670  10.696
  247ETHO    O126555   8.115  13.497  10.674
  247ETHO    C126556   8.107  13.461  10.810
  247ETHO   H1126557   8.196  13.396  10.825
  247ETHO   H1326558   8.119  13.555  10.868
  247ETHO    C226559   7.987  13.380  10.856
  247ETHO   H2126560   7.895  13.443  10.865
  247ETHO   H2326561   7.964  13.306  10.775
  248ETHO    O126562   8.022  13.312  10.972
  248ETHO    C126563   7.915  13.246  11.028
  248ETHO   H1126564   7.822  13.307  11.032
  248ETHO   H1326565   7.896  13.163  10.956
  248ETHO    C226566   7.952  13.199  11.170
  248ETHO   H2126567   8.043  13.135  11.168
  248ETHO   H2326568   7.876  13.124  11.198
  249ETHO    O126569   7.954  13.300  11.259
  249ETHO    C126570   8.094  13.332  11.275
  249ETHO   H1126571   8.147  13.257  11.336
  249ETHO   H1326572   8.149  13.337  11.179
  249ETHO    C226573   8.118  13.471  11.338
  249ETHO   H2126574   8.221  13.482  11.376
  249ETHO   H2326575   8.048  13.493  11.422
  250ETHO    O126576   8.110  13.580  11.249
  250ETHO    C126577   7.973  13.600  11.199
  250ETHO   H1126578   7.961  13.509  11.136
  250ETHO   H1326579   7.893  13.615  11.274
  250ETHO    C226580   7.975  13.732  11.123
  250ETHO   H2126581   8.064  13.726  11.057
  250ETHO   H2326582   7.981  13.820  11.190
  251ETHO    O126583   7.866  13.741  11.041
  251ETHO    C126584   7.860  13.858  10.959
  251ETHO   H1126585   7.764  13.859  10.901
  251ETHO   H1326586   7.938  13.854  10.880
  251ETHO    C226587   7.865  13.999  11.022
  251ETHO   H2126588   7.794  14.012  11.107
  251ETHO   H2326589   7.841  14.072  10.941
  252ETHO    O126590   8.003  14.016  11.052
  252ETHO    C126591   8.021  14.143  11.111
  252ETHO   H1126592   8.012  14.217  11.028
  252ETHO   H1326593   7.941  14.169  11.184
  252ETHO    C226594   8.157  14.142  11.187
  252ETHO   H2126595   8.226  14.122  11.102
  252ETHO   H2326596   8.162  14.063  11.265
  253ETHO    O126597   8.183  14.263  11.243
  253ETHO    C126598   8.154  14.267  11.383
  253ETHO   H1126599   8.217  14.190  11.432
  253ETHO   H1326600   8.049  14.231  11.379
  253ETHO    C226601   8.186  14.394  11.459
  253ETHO   H2126602   8.176  14.482  11.392
  253ETHO   H2326603   8.294  14.389  11.485
  254ETHO    O126604   8.105  14.404  11.580
  254ETHO    C126605   8.169  14.347  11.690
  254ETHO   H1126606   8.216  14.248  11.672
  254ETHO   H1326607   8.243  14.423  11.725
  254ETHO    C226608   8.065  14.333  11.807
  254ETHO   H2126609   8.022  14.434  11.820
  254ETHO   H2326610   8.121  14.310  11.900
  255ETHO    O126611   7.973  14.230  11.787
  255ETHO    C126612   7.876  14.262  11.694
  255ETHO   H1126613   7.899  14.247  11.586
  255ETHO   H1326614   7.859  14.372  11.690
  255ETHO    C226615   7.741  14.195  11.726
  255ETHO   H2126616   7.756  14.086  11.740
  255ETHO   H2326617   7.672  14.208  11.639
  256ETHO    O126618   7.683  14.257  11.839
  256ETHO    C126619   7.702  14.178  11.951
  256ETHO   H1126620   7.683  14.071  11.928
  256ETHO   H1326621   7.808  14.180  11.983
  256ETHO    C226622   7.618  14.240  12.070
  256ETHO   H2126623   7.636  14.185  12.165
  256ETHO   H2326624   7.508  14.226  12.058
  257ETHO    O126625   7.669  14.375  12.091
  257ETHO    C126626   7.590  14.463  12.168
  257ETHO   H1126627   7.583  14.420  12.271
  257ETHO   H1326628   7.491  14.468  12.117
  257ETHO    C226629   7.632  14.609  12.192
  257ETHO   H2126630   7.740  14.600  12.216
  257ETHO   H2326631   7.570  14.643  12.277
  258ETHO    O126632   7.606  14.701  12.085
  258ETHO    C126633   7.676  14.825  12.101
  258ETHO   H1126634   7.631  14.879  12.187
  258ETHO   H1326635   7.784  14.814  12.124
  258ETHO    C226636   7.651  14.909  11.973
  258ETHO   H2126637   7.691  15.012  11.981
  258ETHO   H2326638   7.542  14.909  11.955
  259ETHO    O126639   7.710  14.862  11.855
  259ETHO    C126640   7.665  14.943  11.743
  259ETHO   H1126641   7.561  14.915  11.718
  259ETHO   H1326642   7.668  15.049  11.776
  259ETHO    C226643   7.749  14.944  11.608
  259ETHO   H2126644   7.853  14.982  11.605
  259ETHO   H2326645   7.684  15.006  11.543
  260ETHO    O126646   7.738  14.815  11.553
  260ETHO    C126647   7.775  14.810  11.414
  260ETHO   H1126648   7.677  14.823  11.365
  260ETHO   H1326649   7.840  14.894  11.383
  260ETHO    C226650   7.842  14.675  11.375
  260ETHO   H2126651   7.932  14.658  11.437
  260ETHO   H2326652   7.882  14.686  11.272
  261ETHO    O126653   7.756  14.564  11.384
  261ETHO    C126654   7.818  14.440  11.364
  261ETHO   H1126655   7.889  14.445  11.279
  261ETHO   H1326656   7.884  14.433  11.453
  261ETHO    C226657   7.714  14.316  11.360
  261ETHO   H2126658   7.642  14.325  11.277
  261ETHO   H2326659   7.653  14.307  11.453
  262ETHO    O126660   7.777  14.197  11.360
  262ETHO    C126661   7.687  14.093  11.377
  262ETHO   H1126662   7.622  14.096  11.287
  262ETHO   H1326663   7.615  14.112  11.460
  262ETHO    C226664   7.773  13.964  11.403
  262ETHO   H2126665   7.849  13.934  11.328
  262ETHO   H2326666   7.699  13.882  11.390
  263ETHO    O126667   7.816  13.954  11.538
  263ETHO    C126668   7.899  13.839  11.555
  263ETHO   H1126669   8.000  13.856  11.512
  263ETHO   H1326670   7.849  13.752  11.506
  263ETHO    C226671   7.919  13.803  11.704
  263ETHO   H2126672   7.821  13.781  11.753
  263ETHO   H2326673   7.960  13.894  11.753
  264ETHO    O126674   8.012  13.707  11.726
  264ETHO    C126675   7.944  13.586  11.757
  264ETHO   H1126676   7.869  13.561  11.678
  264ETHO   H1326677   7.885  13.591  11.851
  264ETHO    C226678   8.052  13.478  11.766
  264ETHO   H2126679   8.119  13.489  11.678
  264ETHO   H2326680   8.004  13.378  11.764
  265ETHO    O126681   8.127  13.479  11.888
  265ETHO    C126682   8.223  13.378  11.883
  265ETHO   H1126683   8.278  13.375  11.979
  265ETHO   H1326684   8.172  13.279  11.874
  265ETHO    C226685   8.330  13.387  11.774
  265ETHO   H2126686   8.426  13.344  11.809
  265ETHO   H2326687   8.351  13.495  11.762
  265ETHO    OZ26688   8.292  13.321  11.652
  265ETHO   HZ126689   8.377  13.321  11.607
    1ETHO    O126690  21.496  14.254   9.342
    1ETHO   HO126691  21.439  14.194   9.293
    1ETHO    C126692  21.572  14.177   9.434
    1ETHO   H1126693  21.509  14.087   9.452
    1ETHO   H1326694  21.580  14.244   9.522
    1ETHO    C226695  21.696  14.125   9.376
    1ETHO   H2126696  21.756  14.078   9.456
    1ETHO   H2326697  21.755  14.210   9.334
    2ETHO    O126698  21.666  14.033   9.269
    2ETHO    C126699  21.664  13.900   9.320
    2ETHO   H1126700  21.762  13.872   9.365
    2ETHO   H1326701  21.590  13.876   9.400
    2ETHO    C226702  21.639  13.802   9.199
    2ETHO   H2126703  21.670  13.699   9.226
    2ETHO   H2326704  21.710  13.840   9.123
    3ETHO    O126705  21.512  13.813   9.140
    3ETHO    C126706  21.483  13.716   9.038
    3ETHO   H1126707  21.545  13.626   9.056
    3ETHO   H1326708  21.499  13.759   8.936
    3ETHO    C226709  21.334  13.671   9.055
    3ETHO   H2126710  21.311  13.598   8.974
    3ETHO   H2326711  21.259  13.752   9.039
    4ETHO    O126712  21.312  13.603   9.174
    4ETHO    C126713  21.175  13.554   9.183
    4ETHO   H1126714  21.148  13.485   9.099
    4ETHO   H1326715  21.171  13.501   9.280
    4ETHO    C226716  21.053  13.648   9.196
    4ETHO   H2126717  20.963  13.586   9.217
    4ETHO   H2326718  21.043  13.700   9.098
    5ETHO    O126719  21.071  13.741   9.299
    5ETHO    C126720  21.007  13.863   9.275
    5ETHO   H1126721  21.045  13.940   9.346
    5ETHO   H1326722  21.028  13.895   9.171
    5ETHO    C226723  20.853  13.873   9.285
    5ETHO   H2126724  20.794  13.801   9.224
    5ETHO   H2326725  20.833  13.975   9.245
    6ETHO    O126726  20.807  13.860   9.420
    6ETHO    C126727  20.663  13.878   9.424
    6ETHO   H1126728  20.639  13.959   9.352
    6ETHO   H1326729  20.615  13.784   9.389
    6ETHO    C226730  20.589  13.928   9.550
    6ETHO   H2126731  20.604  13.875   9.646
    6ETHO   H2326732  20.478  13.923   9.535
    7ETHO    O126733  20.614  14.062   9.582
    7ETHO    C126734  20.543  14.106   9.704
    7ETHO   H1126735  20.437  14.071   9.698
    7ETHO   H1326736  20.595  14.059   9.790
    7ETHO    C226737  20.538  14.263   9.710
    7ETHO   H2126738  20.474  14.301   9.628
    7ETHO   H2326739  20.639  14.297   9.681
    8ETHO    O126740  20.493  14.304   9.846
    8ETHO    C126741  20.447  14.437   9.846
    8ETHO   H1126742  20.368  14.439   9.768
    8ETHO   H1326743  20.532  14.504   9.824
    8ETHO    C226744  20.389  14.472   9.983
    8ETHO   H2126745  20.368  14.581   9.992
    8ETHO   H2326746  20.462  14.457  10.065
    9ETHO    O126747  20.264  14.406  10.003
    9ETHO    C126748  20.231  14.410  10.144
    9ETHO   H1126749  20.298  14.333  10.189
    9ETHO   H1326750  20.259  14.504  10.195
    9ETHO    C226751  20.084  14.381  10.169
    9ETHO   H2126752  20.071  14.373  10.279
    9ETHO   H2326753  20.055  14.281  10.130
   10ETHO    O126754  20.002  14.487  10.124
   10ETHO    C126755  19.889  14.504  10.214
   10ETHO   H1126756  19.827  14.593  10.191
   10ETHO   H1326757  19.927  14.529  10.316
   10ETHO    C226758  19.803  14.381  10.213
   10ETHO   H2126759  19.715  14.385  10.280
   10ETHO   H2326760  19.855  14.289  10.246
   11ETHO    O126761  19.767  14.342  10.083
   11ETHO    C126762  19.655  14.430  10.043
   11ETHO   H1126763  19.660  14.529  10.093
   11ETHO   H1326764  19.657  14.447   9.933
   11ETHO    C226765  19.518  14.387  10.097
   11ETHO   H2126766  19.518  14.396  10.207
   11ETHO   H2326767  19.448  14.468  10.065
   12ETHO    O126768  19.469  14.261  10.047
   12ETHO    C126769  19.334  14.240  10.075
   12ETHO   H1126770  19.275  14.320  10.025
   12ETHO   H1326771  19.306  14.243  10.182
   12ETHO    C226772  19.291  14.097  10.028
   12ETHO   H2126773  19.326  14.071   9.926
   12ETHO   H2326774  19.180  14.110  10.030
   13ETHO    O126775  19.328  14.009  10.130
   13ETHO    C126776  19.268  13.879  10.114
   13ETHO   H1126777  19.187  13.868  10.190
   13ETHO   H1326778  19.213  13.865  10.018
   13ETHO    C226779  19.364  13.760  10.132
   13ETHO   H2126780  19.445  13.787  10.204
   13ETHO   H2326781  19.394  13.739  10.027
   14ETHO    O126782  19.289  13.650  10.179
   14ETHO    C126783  19.374  13.557  10.249
   14ETHO   H1126784  19.305  13.486  10.299
   14ETHO   H1326785  19.427  13.612  10.330
   14ETHO    C226786  19.487  13.487  10.166
   14ETHO   H2126787  19.575  13.455  10.227
   14ETHO   H2326788  19.531  13.550  10.086
   15ETHO    O126789  19.436  13.369  10.100
   15ETHO    C126790  19.369  13.409   9.989
   15ETHO   H1126791  19.282  13.471  10.020
   15ETHO   H1326792  19.434  13.471   9.923
   15ETHO    C226793  19.344  13.296   9.888
   15ETHO   H2126794  19.315  13.330   9.786
   15ETHO   H2326795  19.441  13.245   9.867
   16ETHO    O126796  19.252  13.208   9.945
   16ETHO    C126797  19.212  13.104   9.856
   16ETHO   H1126798  19.214  13.120   9.746
   16ETHO   H1326799  19.304  13.042   9.864
   16ETHO    C226800  19.078  13.035   9.908
   16ETHO   H2126801  19.026  12.976   9.829
   16ETHO   H2326802  19.012  13.119   9.938
   17ETHO    O126803  19.107  12.963  10.031
   17ETHO    C126804  18.994  12.875  10.068
   17ETHO   H1126805  18.902  12.924  10.031
   17ETHO   H1326806  19.011  12.773  10.028
   17ETHO    C226807  18.995  12.867  10.226
   17ETHO   H2126808  19.091  12.824  10.263
   17ETHO   H2326809  18.908  12.805  10.256
   18ETHO    O126810  18.979  13.000  10.272
   18ETHO    C126811  19.002  12.994  10.411
   18ETHO   H1126812  18.942  12.912  10.456
   18ETHO   H1326813  19.107  12.960  10.420
   18ETHO    C226814  18.983  13.117  10.494
   18ETHO   H2126815  19.031  13.195  10.432
   18ETHO   H2326816  19.030  13.105  10.594
   19ETHO    O126817  18.847  13.153  10.509
   19ETHO    C126818  18.815  13.255  10.593
   19ETHO   H1126819  18.825  13.217  10.697
   19ETHO   H1326820  18.711  13.284  10.568
   19ETHO    C226821  18.882  13.384  10.558
   19ETHO   H2126822  18.841  13.464  10.623
   19ETHO   H2326823  18.863  13.407  10.451
   20ETHO    O126824  19.015  13.372  10.579
   20ETHO    C126825  19.086  13.496  10.568
   20ETHO   H1126826  19.056  13.556  10.656
   20ETHO   H1326827  19.194  13.474  10.578
   20ETHO    C226828  19.053  13.584  10.447
   20ETHO   H2126829  19.042  13.518  10.358
   20ETHO   H2326830  19.133  13.655  10.418
   21ETHO    O126831  18.928  13.656  10.473
   21ETHO    C126832  18.871  13.710  10.349
   21ETHO   H1126833  18.841  13.632  10.276
   21ETHO   H1326834  18.959  13.759  10.300
   21ETHO    C226835  18.765  13.825  10.385
   21ETHO   H2126836  18.748  13.897  10.301
   21ETHO   H2326837  18.808  13.888  10.465
   22ETHO    O126838  18.635  13.764  10.416
   22ETHO    C126839  18.534  13.864  10.441
   22ETHO   H1126840  18.573  13.940  10.512
   22ETHO   H1326841  18.516  13.924  10.349
   22ETHO    C226842  18.415  13.803  10.500
   22ETHO   H2126843  18.446  13.752  10.594
   22ETHO   H2326844  18.342  13.883  10.525
   23ETHO    O126845  18.347  13.705  10.421
   23ETHO    C126846  18.208  13.710  10.451
   23ETHO   H1126847  18.202  13.734  10.559
   23ETHO   H1326848  18.168  13.610  10.425
   23ETHO    C226849  18.112  13.815  10.381
   23ETHO   H2126850  18.137  13.914  10.425
   23ETHO   H2326851  18.010  13.791  10.417
   24ETHO    O126852  18.113  13.805  10.239
   24ETHO    C126853  18.029  13.902  10.189
   24ETHO   H1126854  17.924  13.867  10.187
   24ETHO   H1326855  18.027  13.987  10.260
   24ETHO    C226856  18.077  13.965  10.053
   24ETHO   H2126857  18.177  14.013  10.063
   24ETHO   H2326858  17.991  14.033  10.033
   25ETHO    O126859  18.082  13.870   9.950
   25ETHO    C126860  18.145  13.921   9.830
   25ETHO   H1126861  18.247  13.961   9.845
   25ETHO   H1326862  18.077  14.006   9.805
   25ETHO    C226863  18.134  13.822   9.712
   25ETHO   H2126864  18.032  13.777   9.714
   25ETHO   H2326865  18.208  13.739   9.717
   26ETHO    O126866  18.134  13.890   9.582
   26ETHO    C126867  18.122  13.798   9.470
   26ETHO   H1126868  18.204  13.723   9.479
   26ETHO   H1326869  18.029  13.739   9.481
   26ETHO    C226870  18.131  13.879   9.340
   26ETHO   H2126871  18.048  13.952   9.347
   26ETHO   H2326872  18.108  13.808   9.258
   27ETHO    O126873  18.256  13.945   9.317
   27ETHO    C126874  18.265  13.988   9.179
   27ETHO   H1126875  18.192  14.071   9.170
   27ETHO   H1326876  18.250  13.896   9.118
   27ETHO    C226877  18.409  14.041   9.147
   27ETHO   H2126878  18.489  13.964   9.148
   27ETHO   H2326879  18.436  14.121   9.219
   28ETHO    O126880  18.404  14.088   9.010
   28ETHO    C126881  18.524  14.162   8.988
   28ETHO   H1126882  18.532  14.248   9.057
   28ETHO   H1326883  18.605  14.086   9.000
   28ETHO    C226884  18.519  14.191   8.842
   28ETHO   H2126885  18.436  14.264   8.829
   28ETHO   H2326886  18.497  14.102   8.780
   29ETHO    O126887  18.637  14.255   8.791
   29ETHO    C126888  18.744  14.171   8.764
   29ETHO   H1126889  18.705  14.072   8.731
   29ETHO   H1326890  18.788  14.152   8.864
   29ETHO    C226891  18.854  14.216   8.669
   29ETHO   H2126892  18.947  14.155   8.674
   29ETHO   H2326893  18.894  14.315   8.702
   30ETHO    O126894  18.800  14.212   8.539
   30ETHO    C126895  18.883  14.291   8.449
   30ETHO   H1126896  18.871  14.398   8.477
   30ETHO   H1326897  18.989  14.267   8.472
   30ETHO    C226898  18.866  14.283   8.293
   30ETHO   H2126899  18.864  14.175   8.267
   30ETHO   H2326900  18.940  14.341   8.235
   31ETHO    O126901  18.739  14.340   8.270
   31ETHO    C126902  18.698  14.316   8.132
   31ETHO   H1126903  18.754  14.227   8.096
   31ETHO   H1326904  18.591  14.288   8.138
   31ETHO    C226905  18.727  14.431   8.030
   31ETHO   H2126906  18.699  14.406   7.925
   31ETHO   H2326907  18.833  14.465   8.028
   32ETHO    O126908  18.653  14.543   8.076
   32ETHO    C126909  18.662  14.657   7.987
   32ETHO   H1126910  18.654  14.750   8.048
   32ETHO   H1326911  18.760  14.667   7.934
   32ETHO    C226912  18.552  14.656   7.882
   32ETHO   H2126913  18.466  14.603   7.930
   32ETHO   H2326914  18.581  14.596   7.793
   33ETHO    O126915  18.526  14.792   7.841
   33ETHO    C126916  18.423  14.799   7.749
   33ETHO   H1126917  18.459  14.730   7.669
   33ETHO   H1326918  18.332  14.757   7.798
   33ETHO    C226919  18.388  14.939   7.696
   33ETHO   H2126920  18.319  14.933   7.609
   33ETHO   H2326921  18.480  14.983   7.652
   34ETHO    O126922  18.340  15.020   7.804
   34ETHO    C126923  18.344  15.157   7.776
   34ETHO   H1126924  18.273  15.172   7.692
   34ETHO   H1326925  18.444  15.194   7.745
   34ETHO    C226926  18.308  15.253   7.893
   34ETHO   H2126927  18.225  15.203   7.948
   34ETHO   H2326928  18.277  15.354   7.860
   35ETHO    O126929  18.420  15.261   7.985
   35ETHO    C126930  18.391  15.332   8.105
   35ETHO   H1126931  18.332  15.423   8.080
   35ETHO   H1326932  18.314  15.269   8.153
   35ETHO    C226933  18.519  15.361   8.183
   35ETHO   H2126934  18.486  15.413   8.275
   35ETHO   H2326935  18.599  15.418   8.131
   36ETHO    O126936  18.570  15.235   8.224
   36ETHO    C126937  18.703  15.241   8.264
   36ETHO   H1126938  18.726  15.326   8.332
   36ETHO   H1326939  18.756  15.265   8.170
   36ETHO    C226940  18.760  15.115   8.334
   36ETHO   H2126941  18.841  15.065   8.278
   36ETHO   H2326942  18.683  15.036   8.318
   37ETHO    O126943  18.804  15.123   8.469
   37ETHO    C126944  18.941  15.169   8.486
   37ETHO   H1126945  18.957  15.150   8.594
   37ETHO   H1326946  19.021  15.114   8.432
   37ETHO    C226947  18.970  15.324   8.461
   37ETHO   H2126948  19.065  15.349   8.512
   37ETHO   H2326949  18.882  15.371   8.511
   38ETHO    O126950  18.967  15.370   8.323
   38ETHO    C126951  19.074  15.321   8.246
   38ETHO   H1126952  19.067  15.210   8.244
   38ETHO   H1326953  19.169  15.351   8.294
   38ETHO    C226954  19.082  15.354   8.096
   38ETHO   H2126955  19.182  15.318   8.062
   38ETHO   H2326956  19.091  15.462   8.073
   39ETHO    O126957  18.967  15.288   8.038
   39ETHO    C126958  18.953  15.314   7.896
   39ETHO   H1126959  18.882  15.400   7.888
   39ETHO   H1326960  19.051  15.343   7.853
   39ETHO    C226961  18.902  15.194   7.818
   39ETHO   H2126962  18.884  15.221   7.712
   39ETHO   H2326963  18.804  15.161   7.858
   40ETHO    O126964  18.996  15.089   7.813
   40ETHO    C126965  18.950  14.978   7.743
   40ETHO   H1126966  18.899  15.018   7.653
   40ETHO   H1326967  18.871  14.930   7.804
   40ETHO    C226968  19.067  14.885   7.712
   40ETHO   H2126969  19.150  14.949   7.675
   40ETHO   H2326970  19.037  14.828   7.622
   41ETHO    O126971  19.103  14.798   7.822
   41ETHO    C126972  19.222  14.724   7.800
   41ETHO   H1126973  19.307  14.785   7.762
   41ETHO   H1326974  19.241  14.670   7.895
   41ETHO    C226975  19.203  14.620   7.687
   41ETHO   H2126976  19.301  14.569   7.682
   41ETHO   H2326977  19.166  14.662   7.591
   42ETHO    O126978  19.118  14.513   7.725
   42ETHO    C126979  18.988  14.524   7.680
   42ETHO   H1126980  18.927  14.577   7.756
   42ETHO   H1326981  18.975  14.577   7.584
   42ETHO    C226982  18.950  14.375   7.670
   42ETHO   H2126983  18.930  14.337   7.773
   42ETHO   H2326984  19.033  14.312   7.633
   43ETHO    O126985  18.841  14.344   7.582
   43ETHO    C126986  18.714  14.377   7.631
   43ETHO   H1126987  18.690  14.322   7.725
   43ETHO   H1326988  18.712  14.485   7.659
   43ETHO    C226989  18.606  14.342   7.525
   43ETHO   H2126990  18.625  14.373   7.420
   43ETHO   H2326991  18.519  14.403   7.560
   44ETHO    O126992  18.574  14.198   7.532
   44ETHO    C126993  18.681  14.115   7.505
   44ETHO   H1126994  18.732  14.157   7.416
   44ETHO   H1326995  18.746  14.122   7.596
   44ETHO    C226996  18.619  13.981   7.479
   44ETHO   H2126997  18.686  13.926   7.408
   44ETHO   H2326998  18.522  13.989   7.425
   45ETHO    O126999  18.603  13.906   7.600
   45ETHO    C127000  18.502  13.794   7.597
   45ETHO   H1127001  18.497  13.736   7.502
   45ETHO   H1327002  18.401  13.830   7.623
   45ETHO    C227003  18.544  13.691   7.708
   45ETHO   H2127004  18.457  13.626   7.730
   45ETHO   H2327005  18.564  13.743   7.804
   46ETHO    O127006  18.659  13.621   7.660
   46ETHO    C127007  18.693  13.512   7.746
   46ETHO   H1127008  18.681  13.530   7.855
   46ETHO   H1327009  18.624  13.427   7.726
   46ETHO    C227010  18.833  13.454   7.720
   46ETHO   H2127011  18.851  13.442   7.611
   46ETHO   H2327012  18.829  13.355   7.770
   47ETHO    O127013  18.947  13.531   7.778
   47ETHO    C127014  19.071  13.450   7.784
   47ETHO   H1127015  19.107  13.424   7.682
   47ETHO   H1327016  19.051  13.353   7.834
   47ETHO    C227017  19.191  13.519   7.852
   47ETHO   H2127018  19.270  13.442   7.864
   47ETHO   H2327019  19.150  13.564   7.945
   48ETHO    O127020  19.241  13.619   7.760
   48ETHO    C127021  19.352  13.695   7.807
   48ETHO   H1127022  19.336  13.751   7.902
   48ETHO   H1327023  19.424  13.612   7.821
   48ETHO    C227024  19.405  13.790   7.697
   48ETHO   H2127025  19.502  13.826   7.737
   48ETHO   H2327026  19.416  13.734   7.602
   49ETHO    O127027  19.331  13.915   7.684
   49ETHO    C127028  19.384  13.984   7.570
   49ETHO   H1127029  19.319  13.967   7.482
   49ETHO   H1327030  19.488  13.966   7.537
   49ETHO    C227031  19.383  14.136   7.591
   49ETHO   H2127032  19.461  14.163   7.666
   49ETHO   H2327033  19.282  14.159   7.631
   50ETHO    O127034  19.390  14.209   7.466
   50ETHO    C127035  19.382  14.346   7.468
   50ETHO   H1127036  19.382  14.384   7.364
   50ETHO   H1327037  19.290  14.374   7.523
   50ETHO    C227038  19.502  14.414   7.537
   50ETHO   H2127039  19.486  14.521   7.512
   50ETHO   H2327040  19.597  14.384   7.487
   51ETHO    O127041  19.501  14.410   7.674
   51ETHO    C127042  19.597  14.495   7.740
   51ETHO   H1127043  19.573  14.599   7.710
   51ETHO   H1327044  19.702  14.474   7.711
   51ETHO    C227045  19.576  14.490   7.894
   51ETHO   H2127046  19.474  14.448   7.912
   51ETHO   H2327047  19.588  14.593   7.934
   52ETHO    O127048  19.676  14.411   7.954
   52ETHO    C127049  19.650  14.372   8.087
   52ETHO   H1127050  19.742  14.356   8.146
   52ETHO   H1327051  19.602  14.452   8.146
   52ETHO    C227052  19.549  14.256   8.113
   52ETHO   H2127053  19.463  14.259   8.042
   52ETHO   H2327054  19.512  14.260   8.217
   53ETHO    O127055  19.614  14.128   8.094
   53ETHO    C127056  19.519  14.025   8.090
   53ETHO   H1127057  19.434  14.045   8.159
   53ETHO   H1327058  19.481  14.017   7.986
   53ETHO    C227059  19.594  13.899   8.121
   53ETHO   H2127060  19.701  13.920   8.100
   53ETHO   H2327061  19.569  13.825   8.042
   54ETHO    O127062  19.584  13.847   8.255
   54ETHO    C127063  19.659  13.727   8.269
   54ETHO   H1127064  19.749  13.726   8.205
   54ETHO   H1327065  19.700  13.735   8.372
   54ETHO    C227066  19.591  13.588   8.256
   54ETHO   H2127067  19.500  13.580   8.319
   54ETHO   H2327068  19.666  13.509   8.276
   55ETHO    O127069  19.562  13.573   8.119
   55ETHO    C127070  19.481  13.457   8.094
   55ETHO   H1127071  19.390  13.467   8.157
   55ETHO   H1327072  19.452  13.462   7.986
   55ETHO    C227073  19.570  13.329   8.106
   55ETHO   H2127074  19.524  13.254   8.039
   55ETHO   H2327075  19.668  13.345   8.057
   56ETHO    O127076  19.592  13.286   8.240
   56ETHO    C127077  19.524  13.166   8.272
   56ETHO   H1127078  19.552  13.091   8.194
   56ETHO   H1327079  19.414  13.175   8.259
   56ETHO    C227080  19.559  13.123   8.410
   56ETHO   H2127081  19.670  13.121   8.416
   56ETHO   H2327082  19.514  13.026   8.439
   57ETHO    O127083  19.508  13.224   8.496
   57ETHO    C127084  19.525  13.210   8.637
   57ETHO   H1127085  19.435  13.148   8.657
   57ETHO   H1327086  19.617  13.149   8.653
   57ETHO    C227087  19.522  13.347   8.709
   57ETHO   H2127088  19.612  13.396   8.667
   57ETHO   H2327089  19.537  13.338   8.819
   58ETHO    O127090  19.400  13.423   8.701
   58ETHO    C127091  19.428  13.560   8.743
   58ETHO   H1127092  19.523  13.595   8.698
   58ETHO   H1327093  19.437  13.561   8.854
   58ETHO    C227094  19.312  13.643   8.698
   58ETHO   H2127095  19.308  13.739   8.754
   58ETHO   H2327096  19.219  13.588   8.726
   59ETHO    O127097  19.317  13.668   8.562
   59ETHO    C127098  19.287  13.798   8.531
   59ETHO   H1127099  19.188  13.817   8.577
   59ETHO   H1327100  19.370  13.861   8.571
   59ETHO    C227101  19.285  13.802   8.376
   59ETHO   H2127102  19.364  13.731   8.344
   59ETHO   H2327103  19.299  13.901   8.328
   60ETHO    O127104  19.164  13.759   8.322
   60ETHO    C127105  19.166  13.765   8.180
   60ETHO   H1127106  19.109  13.673   8.154
   60ETHO   H1327107  19.268  13.755   8.137
   60ETHO    C227108  19.089  13.882   8.116
   60ETHO   H2127109  18.987  13.888   8.160
   60ETHO   H2327110  19.070  13.846   8.013
   61ETHO    O127111  19.155  14.013   8.117
   61ETHO    C127112  19.091  14.105   8.035
   61ETHO   H1127113  19.070  14.049   7.941
   61ETHO   H1327114  18.992  14.136   8.075
   61ETHO    C227115  19.169  14.234   8.011
   61ETHO   H2127116  19.123  14.286   7.924
   61ETHO   H2327117  19.276  14.209   7.992
   62ETHO    O127118  19.154  14.314   8.128
   62ETHO    C127119  19.218  14.436   8.122
   62ETHO   H1127120  19.183  14.497   8.036
   62ETHO   H1327121  19.328  14.419   8.112
   62ETHO    C227122  19.183  14.507   8.257
   62ETHO   H2127123  19.074  14.493   8.276
   62ETHO   H2327124  19.202  14.615   8.240
   63ETHO    O127125  19.257  14.466   8.369
   63ETHO    C127126  19.374  14.544   8.383
   63ETHO   H1127127  19.421  14.553   8.283
   63ETHO   H1327128  19.356  14.648   8.418
   63ETHO    C227129  19.477  14.488   8.481
   63ETHO   H2127130  19.421  14.481   8.577
   63ETHO   H2327131  19.562  14.556   8.499
   64ETHO    O127132  19.534  14.361   8.445
   64ETHO    C127133  19.473  14.244   8.493
   64ETHO   H1127134  19.371  14.237   8.450
   64ETHO   H1327135  19.459  14.255   8.602
   64ETHO    C227136  19.559  14.121   8.462
   64ETHO   H2127137  19.596  14.122   8.357
   64ETHO   H2327138  19.491  14.034   8.473
   65ETHO    O127139  19.659  14.110   8.560
   65ETHO    C127140  19.782  14.171   8.514
   65ETHO   H1127141  19.760  14.267   8.462
   65ETHO   H1327142  19.831  14.194   8.611
   65ETHO    C227143  19.883  14.090   8.424
   65ETHO   H2127144  19.849  14.081   8.319
   65ETHO   H2327145  19.886  13.991   8.473
   66ETHO    O127146  20.017  14.143   8.434
   66ETHO    C127147  20.028  14.267   8.361
   66ETHO   H1127148  20.018  14.351   8.433
   66ETHO   H1327149  19.953  14.280   8.280
   66ETHO    C227150  20.167  14.269   8.298
   66ETHO   H2127151  20.236  14.246   8.382
   66ETHO   H2327152  20.201  14.364   8.252
   67ETHO    O127153  20.177  14.174   8.189
   67ETHO    C127154  20.287  14.197   8.105
   67ETHO   H1127155  20.272  14.300   8.067
   67ETHO   H1327156  20.381  14.190   8.164
   67ETHO    C227157  20.291  14.103   7.980
   67ETHO   H2127158  20.296  13.995   8.005
   67ETHO   H2327159  20.384  14.134   7.928
   68ETHO    O127160  20.176  14.121   7.902
   68ETHO    C127161  20.199  14.067   7.770
   68ETHO   H1127162  20.293  14.119   7.739
   68ETHO   H1327163  20.237  13.963   7.775
   68ETHO    C227164  20.087  14.102   7.668
   68ETHO   H2127165  19.992  14.056   7.702
   68ETHO   H2327166  20.115  14.067   7.567
   69ETHO    O127167  20.077  14.240   7.672
   69ETHO    C127168  20.012  14.295   7.560
   69ETHO   H1127169  20.055  14.255   7.465
   69ETHO   H1327170  19.903  14.276   7.552
   69ETHO    C227171  20.015  14.452   7.577
   69ETHO   H2127172  20.118  14.488   7.595
   69ETHO   H2327173  19.947  14.472   7.662
   70ETHO    O127174  19.971  14.500   7.455
   70ETHO    C127175  19.918  14.634   7.457
   70ETHO   H1127176  19.849  14.657   7.541
   70ETHO   H1327177  19.999  14.704   7.484
   70ETHO    C227178  19.865  14.687   7.324
   70ETHO   H2127179  19.930  14.635   7.250
   70ETHO   H2327180  19.875  14.798   7.315
   71ETHO    O127181  19.723  14.645   7.298
   71ETHO    C127182  19.676  14.690   7.170
   71ETHO   H1127183  19.719  14.630   7.086
   71ETHO   H1327184  19.704  14.795   7.147
   71ETHO    C227185  19.524  14.688   7.183
   71ETHO   H2127186  19.497  14.611   7.258
   71ETHO   H2327187  19.486  14.654   7.084
   72ETHO    O127188  19.476  14.816   7.219
   72ETHO    C127189  19.434  14.828   7.352
   72ETHO   H1127190  19.347  14.896   7.365
   72ETHO   H1327191  19.397  14.729   7.385
   72ETHO    C227192  19.547  14.870   7.447
   72ETHO   H2127193  19.628  14.929   7.399
   72ETHO   H2327194  19.589  14.775   7.486
   73ETHO    O127195  19.481  14.951   7.551
   73ETHO    C127196  19.565  14.975   7.659
   73ETHO   H1127197  19.653  15.028   7.615
   73ETHO   H1327198  19.613  14.884   7.700
   73ETHO    C227199  19.512  15.077   7.755
   73ETHO   H2127200  19.570  15.109   7.844
   73ETHO   H2327201  19.423  15.025   7.797
   74ETHO    O127202  19.472  15.196   7.695
   74ETHO    C127203  19.379  15.276   7.774
   74ETHO   H1127204  19.302  15.211   7.820
   74ETHO   H1327205  19.430  15.327   7.859
   74ETHO    C227206  19.303  15.379   7.691
   74ETHO   H2127207  19.215  15.340   7.636
   74ETHO   H2327208  19.379  15.413   7.618
   75ETHO    O127209  19.267  15.478   7.779
   75ETHO    C127210  19.185  15.575   7.727
   75ETHO   H1127211  19.102  15.526   7.672
   75ETHO   H1327212  19.254  15.625   7.656
   75ETHO    C227213  19.122  15.681   7.816
   75ETHO   H2127214  19.076  15.617   7.894
   75ETHO   H2327215  19.052  15.746   7.760
   76ETHO    O127216  19.215  15.773   7.868
   76ETHO    C127217  19.284  15.727   7.985
   76ETHO   H1127218  19.203  15.681   8.046
   76ETHO   H1327219  19.350  15.645   7.950
   76ETHO    C227220  19.363  15.829   8.064
   76ETHO   H2127221  19.414  15.788   8.154
   76ETHO   H2327222  19.293  15.910   8.091
   77ETHO    O127223  19.468  15.884   7.986
   77ETHO    C127224  19.554  15.977   8.057
   77ETHO   H1127225  19.486  16.047   8.111
   77ETHO   H1327226  19.605  16.040   7.981
   77ETHO    C227227  19.648  15.903   8.152
   77ETHO   H2127228  19.740  15.964   8.160
   77ETHO   H2327229  19.674  15.808   8.101
   78ETHO    O127230  19.598  15.889   8.287
   78ETHO    C127231  19.671  15.801   8.366
   78ETHO   H1127232  19.775  15.806   8.329
   78ETHO   H1327233  19.668  15.846   8.468
   78ETHO    C227234  19.622  15.654   8.366
   78ETHO   H2127235  19.516  15.654   8.402
   78ETHO   H2327236  19.691  15.593   8.428
   79ETHO    O127237  19.620  15.597   8.239
   79ETHO    C127238  19.513  15.502   8.231
   79ETHO   H1127239  19.493  15.445   8.324
   79ETHO   H1327240  19.418  15.552   8.204
   79ETHO    C227241  19.554  15.392   8.140
   79ETHO   H2127242  19.628  15.424   8.063
   79ETHO   H2327243  19.464  15.360   8.084
   80ETHO    O127244  19.605  15.283   8.206
   80ETHO    C127245  19.670  15.186   8.128
   80ETHO   H1127246  19.683  15.207   8.020
   80ETHO   H1327247  19.776  15.181   8.158
   80ETHO    C227248  19.603  15.046   8.147
   80ETHO   H2127249  19.599  15.022   8.256
   80ETHO   H2327250  19.669  14.973   8.095
   81ETHO    O127251  19.478  15.043   8.096
   81ETHO    C127252  19.392  14.941   8.151
   81ETHO   H1127253  19.427  14.845   8.107
   81ETHO   H1327254  19.406  14.941   8.261
   81ETHO    C227255  19.249  14.960   8.106
   81ETHO   H2127256  19.230  15.064   8.142
   81ETHO   H2327257  19.236  14.955   7.996
   82ETHO    O127258  19.162  14.872   8.175
   82ETHO    C127259  19.023  14.904   8.132
   82ETHO   H1127260  19.011  14.882   8.024
   82ETHO   H1327261  19.004  15.011   8.154
   82ETHO    C227262  18.924  14.808   8.204
   82ETHO   H2127263  18.945  14.704   8.172
   82ETHO   H2327264  18.827  14.840   8.160
   83ETHO    O127265  18.915  14.831   8.340
   83ETHO    C127266  18.815  14.752   8.399
   83ETHO   H1127267  18.715  14.797   8.382
   83ETHO   H1327268  18.824  14.647   8.366
   83ETHO    C227269  18.825  14.757   8.553
   83ETHO   H2127270  18.737  14.705   8.597
   83ETHO   H2327271  18.834  14.857   8.600
   84ETHO    O127272  18.944  14.689   8.578
   84ETHO    C127273  18.993  14.713   8.710
   84ETHO   H1127274  18.984  14.819   8.741
   84ETHO   H1327275  19.104  14.708   8.699
   84ETHO    C227276  18.936  14.630   8.829
   84ETHO   H2127277  19.004  14.652   8.914
   84ETHO   H2327278  18.932  14.520   8.813
   85ETHO    O127279  18.811  14.665   8.870
   85ETHO    C127280  18.743  14.561   8.941
   85ETHO   H1127281  18.756  14.460   8.897
   85ETHO   H1327282  18.771  14.564   9.048
   85ETHO    C227283  18.589  14.574   8.947
   85ETHO   H2127284  18.542  14.480   8.983
   85ETHO   H2327285  18.553  14.595   8.844
   86ETHO    O127286  18.550  14.678   9.036
   86ETHO    C127287  18.409  14.671   9.058
   86ETHO   H1127288  18.376  14.566   9.073
   86ETHO   H1327289  18.364  14.690   8.958
   86ETHO    C227290  18.347  14.754   9.175
   86ETHO   H2127291  18.239  14.730   9.169
   86ETHO   H2327292  18.366  14.862   9.159
   87ETHO    O127293  18.396  14.719   9.298
   87ETHO    C127294  18.339  14.785   9.407
   87ETHO   H1127295  18.415  14.857   9.444
   87ETHO   H1327296  18.249  14.845   9.382
   87ETHO    C227297  18.304  14.684   9.520
   87ETHO   H2127298  18.298  14.755   9.605
   87ETHO   H2327299  18.385  14.613   9.544
   88ETHO    O127300  18.186  14.615   9.487
   88ETHO    C127301  18.120  14.562   9.602
   88ETHO   H1127302  18.089  14.649   9.665
   88ETHO   H1327303  18.203  14.506   9.650
   88ETHO    C227304  18.004  14.464   9.577
   88ETHO   H2127305  18.004  14.386   9.656
   88ETHO   H2327306  18.030  14.414   9.481
   89ETHO    O127307  17.872  14.526   9.564
   89ETHO    C127308  17.790  14.470   9.462
   89ETHO   H1127309  17.708  14.543   9.447
   89ETHO   H1327310  17.850  14.467   9.368
   89ETHO    C227311  17.730  14.336   9.496
   89ETHO   H2127312  17.798  14.274   9.559
   89ETHO   H2327313  17.721  14.273   9.405
   90ETHO    O127314  17.605  14.338   9.567
   90ETHO    C127315  17.553  14.206   9.571
   90ETHO   H1127316  17.550  14.162   9.469
   90ETHO   H1327317  17.616  14.148   9.641
   90ETHO    C227318  17.410  14.198   9.619
   90ETHO   H2127319  17.353  14.243   9.535
   90ETHO   H2327320  17.404  14.259   9.712
   91ETHO    O127321  17.371  14.068   9.643
   91ETHO    C127322  17.415  14.012   9.768
   91ETHO   H1127323  17.525  14.021   9.779
   91ETHO   H1327324  17.358  14.064   9.849
   91ETHO    C227325  17.381  13.864   9.781
   91ETHO   H2127326  17.441  13.821   9.864
   91ETHO   H2327327  17.423  13.817   9.690
   92ETHO    O127328  17.244  13.828   9.792
   92ETHO    C127329  17.187  13.821   9.929
   92ETHO   H1127330  17.235  13.734   9.980
   92ETHO   H1327331  17.218  13.913   9.984
   92ETHO    C227332  17.028  13.822   9.925
   92ETHO   H2127333  16.978  13.727   9.895
   92ETHO   H2327334  17.008  13.895   9.844
   93ETHO    O127335  16.978  13.874  10.045
   93ETHO    C127336  16.834  13.867  10.053
   93ETHO   H1127337  16.808  13.792  10.132
   93ETHO   H1327338  16.796  13.822   9.959
   93ETHO    C227339  16.759  13.999  10.067
   93ETHO   H2127340  16.805  14.073   9.998
   93ETHO   H2327341  16.767  14.040  10.170
   94ETHO    O127342  16.624  13.981  10.025
   94ETHO    C127343  16.543  14.099  10.062
   94ETHO   H1127344  16.523  14.093  10.171
   94ETHO   H1327345  16.611  14.186  10.048
   94ETHO    C227346  16.416  14.093   9.970
   94ETHO   H2127347  16.455  14.071   9.868
   94ETHO   H2327348  16.369  14.192   9.955
   95ETHO    O127349  16.323  13.987  10.006
   95ETHO    C127350  16.246  14.027  10.119
   95ETHO   H1127351  16.290  14.121  10.158
   95ETHO   H1327352  16.243  13.949  10.198
   95ETHO    C227353  16.102  14.060  10.076
   95ETHO   H2127354  16.106  14.125   9.986
   95ETHO   H2327355  16.035  14.108  10.151
   96ETHO    O127356  16.045  13.932  10.056
   96ETHO    C127357  15.926  13.933   9.983
   96ETHO   H1127358  15.853  13.996  10.038
   96ETHO   H1327359  15.931  13.983   9.884
   96ETHO    C227360  15.865  13.788   9.970
   96ETHO   H2127361  15.758  13.809   9.944
   96ETHO   H2327362  15.866  13.754  10.075
   97ETHO    O127363  15.926  13.714   9.870
   97ETHO    C127364  15.862  13.588   9.860
   97ETHO   H1127365  15.758  13.612   9.829
   97ETHO   H1327366  15.851  13.538   9.959
   97ETHO    C227367  15.935  13.495   9.765
   97ETHO   H2127368  15.940  13.532   9.660
   97ETHO   H2327369  15.874  13.404   9.743
   98ETHO    O127370  16.060  13.445   9.821
   98ETHO    C127371  16.153  13.415   9.724
   98ETHO   H1127372  16.132  13.320   9.671
   98ETHO   H1327373  16.158  13.501   9.653
   98ETHO    C227374  16.289  13.401   9.791
   98ETHO   H2127375  16.311  13.499   9.839
   98ETHO   H2327376  16.355  13.394   9.702
   99ETHO    O127377  16.302  13.294   9.888
   99ETHO    C127378  16.423  13.313   9.968
   99ETHO   H1127379  16.401  13.406  10.023
   99ETHO   H1327380  16.509  13.344   9.905
   99ETHO    C227381  16.462  13.197  10.055
   99ETHO   H2127382  16.378  13.151  10.112
   99ETHO   H2327383  16.533  13.241  10.129
  100ETHO    O127384  16.537  13.112   9.973
  100ETHO    C127385  16.508  12.976   9.994
  100ETHO   H1127386  16.399  12.956  10.003
  100ETHO   H1327387  16.539  12.918   9.904
  100ETHO    C227388  16.566  12.925  10.125
  100ETHO   H2127389  16.668  12.963  10.145
  100ETHO   H2327390  16.564  12.814  10.129
  101PROX    O127391  16.480  12.975  10.228
  101PROX    C127392  16.519  12.948  10.361
  101PROX   H1127393  16.530  12.839  10.372
  101PROX   H1327394  16.620  12.992  10.374
  101PROX    C227395  16.416  12.996  10.464
  101PROX   H2127396  16.328  12.936  10.434
  101PROX    C327397  16.376  13.147  10.453
  101PROX   H3127398  16.466  13.207  10.478
  101PROX   H3227399  16.328  13.185  10.360
  101PROX   H3327400  16.302  13.165  10.534
  102PROX    O127401  16.457  12.958  10.596
  102PROX    C127402  16.352  12.923  10.685
  102PROX   H1127403  16.299  13.018  10.711
  102PROX   H1327404  16.278  12.848  10.651
  102PROX    C227405  16.417  12.866  10.810
  102PROX   H2127406  16.508  12.926  10.827
  102PROX    C327407  16.456  12.719  10.777
  102PROX   H3127408  16.481  12.661  10.869
  102PROX   H3227409  16.370  12.661  10.739
  102PROX   H3327410  16.539  12.721  10.704
  103PROX    O127411  16.327  12.867  10.918
  103PROX    C127412  16.400  12.873  11.039
  103PROX   H1127413  16.346  12.817  11.119
  103PROX   H1327414  16.498  12.822  11.030
  103PROX    C227415  16.434  13.017  11.089
  103PROX   H2127416  16.487  13.076  11.012
  103PROX    C327417  16.522  13.005  11.220
  103PROX   H3127418  16.624  12.973  11.192
  103PROX   H3227419  16.512  13.102  11.273
  103PROX   H3327420  16.493  12.922  11.288
  104PROX    O127421  16.315  13.081  11.132
  104PROX    C127422  16.228  13.125  11.030
  104PROX   H1127423  16.187  13.039  10.973
  104PROX   H1327424  16.138  13.161  11.085
  104PROX    C227425  16.283  13.235  10.935
  104PROX   H2127426  16.361  13.196  10.866
  104PROX    C327427  16.357  13.336  11.020
  104PROX   H3127428  16.436  13.383  10.959
  104PROX   H3227429  16.281  13.408  11.057
  104PROX   H3327430  16.406  13.277  11.101
  105PROX    O127431  16.172  13.289  10.863
  105PROX    C127432  16.203  13.366  10.750
  105PROX   H1127433  16.248  13.462  10.783
  105PROX   H1327434  16.292  13.328  10.697
  105PROX    C227435  16.088  13.407  10.659
  105PROX   H2127436  16.016  13.472  10.713
  105PROX    C327437  16.013  13.283  10.620
  105PROX   H3127438  15.961  13.250  10.712
  105PROX   H3227439  15.933  13.306  10.546
  105PROX   H3327440  16.080  13.201  10.585
  106PROX    O127441  16.138  13.470  10.546
  106PROX    C127442  16.152  13.613  10.551
  106PROX   H1127443  16.067  13.658  10.607
  106PROX   H1327444  16.252  13.630  10.598
  106PROX    C227445  16.160  13.666  10.410
  106PROX   H2127446  16.064  13.645  10.358
  106PROX    C327447  16.285  13.628  10.327
  106PROX   H3127448  16.374  13.679  10.370
  106PROX   H3227449  16.302  13.522  10.357
  106PROX   H3327450  16.282  13.647  10.217
  107PROX    O127451  16.172  13.810  10.423
  107PROX    C127452  16.047  13.875  10.414
  107PROX   H1127453  16.001  13.845  10.317
  107PROX   H1327454  15.968  13.842  10.485
  107PROX    C227455  16.077  14.022  10.441
  107PROX   H2127456  16.142  14.061  10.360
  107PROX    C327457  16.150  14.046  10.576
  107PROX   H3127458  16.172  14.155  10.578
  107PROX   H3227459  16.098  14.004  10.665
  107PROX   H3327460  16.254  14.007  10.581
  108PROX    O127461  15.954  14.096  10.458
  108PROX    C127462  15.962  14.230  10.407
  108PROX   H1127463  16.044  14.287  10.455
  108PROX   H1327464  15.993  14.225  10.300
  108PROX    C227465  15.833  14.315  10.422
  108PROX   H2127466  15.755  14.255  10.370
  108PROX    C327467  15.843  14.458  10.353
  108PROX   H3127468  15.744  14.493  10.317
  108PROX   H3227469  15.868  14.531  10.433
  108PROX   H3327470  15.917  14.455  10.271
  109PROX    O127471  15.802  14.332  10.552
  109PROX    C127472  15.666  14.330  10.573
  109PROX   H1127473  15.624  14.420  10.523
  109PROX   H1327474  15.615  14.245  10.522
  109PROX    C227475  15.621  14.331  10.722
  109PROX   H2127476  15.511  14.337  10.734
  109PROX    C327477  15.663  14.456  10.805
  109PROX   H3127478  15.645  14.452  10.915
  109PROX   H3227479  15.767  14.485  10.776
  109PROX   H3327480  15.608  14.549  10.779
  110PROX    O127481  15.668  14.210  10.786
  110PROX    C127482  15.583  14.094  10.772
  110PROX   H1127483  15.504  14.094  10.851
  110PROX   H1327484  15.541  14.091  10.669
  110PROX    C227485  15.680  13.972  10.783
  110PROX   H2127486  15.738  13.996  10.875
  110PROX    C327487  15.764  13.963  10.656
  110PROX   H3127488  15.697  13.952  10.569
  110PROX   H3227489  15.823  14.056  10.641
  110PROX   H3327490  15.838  13.880  10.667
  111PROX    O127491  15.610  13.848  10.782
  111PROX    C127492  15.635  13.772  10.899
  111PROX   H1127493  15.622  13.827  10.994
  111PROX   H1327494  15.562  13.688  10.907
  111PROX    C227495  15.780  13.715  10.902
  111PROX   H2127496  15.814  13.712  10.796
  111PROX    C327497  15.789  13.576  10.966
  111PROX   H3127498  15.727  13.500  10.913
  111PROX   H3227499  15.894  13.539  10.968
  111PROX   H3327500  15.747  13.579  11.069
  112PROX    O127501  15.855  13.813  10.975
  112PROX    C127502  15.999  13.800  10.944
  112PROX   H1127503  16.034  13.728  11.020
  112PROX   H1327504  16.013  13.752  10.845
  112PROX    C227505  16.082  13.926  10.960
  112PROX   H2127506  16.039  14.012  10.904
  112PROX    C327507  16.218  13.891  10.892
  112PROX   H3127508  16.201  13.843  10.793
  112PROX   H3227509  16.279  13.983  10.879
  112PROX   H3327510  16.279  13.825  10.958
  113PROX    O127511  16.106  13.961  11.097
  113PROX    C127512  15.990  13.998  11.173
  113PROX   H1127513  15.915  13.918  11.158
  113PROX   H1327514  16.022  14.009  11.279
  113PROX    C227515  15.934  14.133  11.134
  113PROX   H2127516  15.916  14.143  11.025
  113PROX    C327517  16.027  14.249  11.163
  113PROX   H3127518  16.037  14.244  11.273
  113PROX   H3227519  16.127  14.244  11.114
  113PROX   H3327520  15.976  14.342  11.130
  114PROX    O127521  15.816  14.159  11.212
  114PROX    C127522  15.692  14.119  11.148
  114PROX   H1127523  15.694  14.173  11.051
  114PROX   H1327524  15.700  14.010  11.127
  114PROX    C227525  15.579  14.177  11.224
  114PROX   H2127526  15.487  14.185  11.162
  114PROX    C327527  15.607  14.319  11.274
  114PROX   H3127528  15.618  14.398  11.196
  114PROX   H3227529  15.518  14.350  11.332
  114PROX   H3327530  15.698  14.327  11.337
  115PROX    O127531  15.556  14.096  11.337
  115PROX    C127532  15.485  13.971  11.307
  115PROX   H1127533  15.376  13.994  11.301
  115PROX   H1327534  15.518  13.933  11.208
  115PROX    C227535  15.518  13.866  11.417
  115PROX   H2127536  15.522  13.924  11.512
  115PROX    C327537  15.662  13.802  11.399
  115PROX   H3127538  15.678  13.752  11.496
  115PROX   H3227539  15.654  13.736  11.310
  115PROX   H3327540  15.735  13.881  11.370
  116PROX    O127541  15.422  13.761  11.418
  116PROX    C127542  15.399  13.697  11.543
  116PROX   H1127543  15.488  13.690  11.610
  116PROX   H1327544  15.315  13.749  11.595
  116PROX    C227545  15.342  13.560  11.513
  116PROX   H2127546  15.274  13.569  11.426
  116PROX    C327547  15.265  13.518  11.643
  116PROX   H3127548  15.181  13.583  11.675
  116PROX   H3227549  15.210  13.424  11.617
  116PROX   H3327550  15.337  13.485  11.720
  117PROX    O127551  15.450  13.472  11.485
  117PROX    C127552  15.399  13.350  11.425
  117PROX   H1127553  15.351  13.290  11.506
  117PROX   H1327554  15.323  13.370  11.347
  117PROX    C227555  15.514  13.270  11.366
  117PROX   H2127556  15.578  13.238  11.452
  117PROX    C327557  15.608  13.342  11.271
  117PROX   H3127558  15.638  13.439  11.317
  117PROX   H3227559  15.702  13.283  11.263
  117PROX   H3327560  15.562  13.355  11.171
  118PROX    O127561  15.470  13.156  11.295
  118PROX    C127562  15.414  13.057  11.373
  118PROX   H1127563  15.463  13.068  11.472
  118PROX   H1327564  15.307  13.082  11.384
  118PROX    C227565  15.432  12.916  11.316
  118PROX   H2127566  15.397  12.926  11.211
  118PROX    C327567  15.340  12.811  11.382
  118PROX   H3127568  15.327  12.720  11.319
  118PROX   H3227569  15.378  12.786  11.484
  118PROX   H3327570  15.240  12.856  11.395
  119PROX    O127571  15.569  12.888  11.306
  119PROX    C127572  15.625  12.818  11.414
  119PROX   H1127573  15.579  12.872  11.500
  119PROX   H1327574  15.592  12.712  11.410
  119PROX    C227575  15.786  12.820  11.419
  119PROX   H2127576  15.836  12.845  11.323
  119PROX    C327577  15.837  12.687  11.464
  119PROX   H3127578  15.792  12.665  11.563
  119PROX   H3227579  15.795  12.615  11.390
  119PROX   H3327580  15.947  12.689  11.446
  120PROX    O127581  15.836  12.909  11.525
  120PROX    C127582  15.819  13.044  11.497
  120PROX   H1127583  15.851  13.057  11.391
  120PROX   H1327584  15.711  13.067  11.509
  120PROX    C227585  15.904  13.136  11.583
  120PROX   H2127586  16.009  13.100  11.580
  120PROX    C327587  15.861  13.147  11.727
  120PROX   H3127588  15.759  13.192  11.732
  120PROX   H3227589  15.865  13.042  11.763
  120PROX   H3327590  15.936  13.193  11.794
  121PROX    O127591  15.885  13.269  11.529
  121PROX    C127592  15.970  13.291  11.415
  121PROX   H1127593  16.078  13.278  11.438
  121PROX   H1327594  15.945  13.220  11.333
  121PROX    C227595  15.969  13.442  11.365
  121PROX   H2127596  15.864  13.474  11.347
  121PROX    C327597  16.040  13.439  11.229
  121PROX   H3127598  16.010  13.519  11.158
  121PROX   H3227599  16.149  13.452  11.242
  121PROX   H3327600  16.019  13.343  11.177
  122PROX    O127601  16.016  13.526  11.470
  122PROX    C127602  16.014  13.662  11.433
  122PROX   H1127603  16.084  13.690  11.351
  122PROX   H1327604  15.915  13.693  11.394
  122PROX    C227605  16.057  13.752  11.554
  122PROX   H2127606  16.150  13.714  11.600
  122PROX    C327607  15.963  13.748  11.674
  122PROX   H3127608  15.865  13.791  11.645
  122PROX   H3227609  15.948  13.647  11.719
  122PROX   H3327610  15.997  13.809  11.760
  123PROX    O127611  16.076  13.885  11.504
  123PROX    C127612  16.158  13.962  11.595
  123PROX   H1127613  16.133  13.936  11.701
  123PROX   H1327614  16.267  13.951  11.581
  123PROX    C227615  16.125  14.113  11.565
  123PROX   H2127616  16.135  14.143  11.459
  123PROX    C327617  16.229  14.200  11.633
  123PROX   H3127618  16.328  14.183  11.586
  123PROX   H3227619  16.194  14.304  11.616
  123PROX   H3327620  16.221  14.169  11.740
  124PROX    O127621  16.006  14.141  11.632
  124PROX    C127622  15.886  14.106  11.566
  124PROX   H1127623  15.902  14.096  11.456
  124PROX   H1327624  15.851  14.005  11.593
  124PROX    C227625  15.783  14.212  11.586
  124PROX   H2127626  15.708  14.196  11.505
  124PROX    C327627  15.842  14.351  11.573
  124PROX   H3127628  15.887  14.356  11.472
  124PROX   H3227629  15.762  14.428  11.584
  124PROX   H3327630  15.910  14.356  11.661
  125PROX    O127631  15.729  14.196  11.713
  125PROX    C127632  15.627  14.099  11.728
  125PROX   H1127633  15.533  14.134  11.680
  125PROX   H1327634  15.661  14.008  11.673
  125PROX    C227635  15.594  14.058  11.872
  125PROX   H2127636  15.537  14.142  11.916
  125PROX    C327637  15.711  14.005  11.963
  125PROX   H3127638  15.727  14.072  12.050
  125PROX   H3227639  15.694  13.903  12.003
  125PROX   H3327640  15.801  14.002  11.898
  126PROX    O127641  15.491  13.964  11.867
  126PROX    C127642  15.433  13.931  11.997
  126PROX   H1127643  15.505  13.885  12.068
  126PROX   H1327644  15.387  14.020  12.046
  126PROX    C227645  15.321  13.828  11.981
  126PROX   H2127646  15.271  13.813  12.079
  126PROX    C327647  15.382  13.687  11.949
  126PROX   H3127648  15.421  13.679  11.846
  126PROX   H3227649  15.471  13.661  12.011
  126PROX   H3327650  15.311  13.605  11.973
  127PROX    O127651  15.224  13.879  11.893
  127PROX    C127652  15.099  13.808  11.904
  127PROX   H1127653  15.116  13.700  11.882
  127PROX   H1327654  15.066  13.808  12.010
  127PROX    C227655  14.987  13.853  11.803
  127PROX   H2127656  14.962  13.960  11.818
  127PROX    C327657  14.850  13.784  11.803
  127PROX   H3127658  14.781  13.828  11.728
  127PROX   H3227659  14.866  13.674  11.806
  127PROX   H3327660  14.802  13.812  11.899
  128PROX    O127661  15.029  13.837  11.666
  128PROX    C127662  15.056  13.961  11.608
  128PROX   H1127663  14.965  14.024  11.597
  128PROX   H1327664  15.126  14.019  11.672
  128PROX    C227665  15.110  13.945  11.462
  128PROX   H2127666  15.209  13.894  11.469
  128PROX    C327667  15.142  14.086  11.393
  128PROX   H3127668  15.052  14.150  11.396
  128PROX   H3227669  15.230  14.141  11.432
  128PROX   H3327670  15.157  14.059  11.286
  129PROX    O127671  15.029  13.865  11.382
  129PROX    C127672  14.899  13.919  11.345
  129PROX   H1127673  14.841  13.928  11.439
  129PROX   H1327674  14.915  14.020  11.302
  129PROX    C227675  14.826  13.828  11.245
  129PROX   H2127676  14.886  13.798  11.157
  129PROX    C327677  14.697  13.901  11.195
  129PROX   H3127678  14.709  14.006  11.162
  129PROX   H3227679  14.670  13.847  11.101
  129PROX   H3327680  14.623  13.892  11.277
  130PROX    O127681  14.807  13.701  11.310
  130PROX    C127682  14.748  13.600  11.231
  130PROX   H1127683  14.746  13.631  11.124
  130PROX   H1327684  14.809  13.507  11.238
  130PROX    C227685  14.611  13.546  11.292
  130PROX   H2127686  14.538  13.630  11.295
  130PROX    C327687  14.620  13.507  11.442
  130PROX   H3127688  14.515  13.501  11.480
  130PROX   H3227689  14.684  13.418  11.458
  130PROX   H3327690  14.665  13.594  11.494
  131PROX    O127691  14.557  13.436  11.220
  131PROX    C127692  14.527  13.484  11.092
  131PROX   H1127693  14.499  13.591  11.100
  131PROX   H1327694  14.617  13.475  11.029
  131PROX    C227695  14.398  13.410  11.040
  131PROX   H2127696  14.315  13.417  11.113
  131PROX    C327697  14.433  13.271  11.007
  131PROX   H3127698  14.484  13.231  11.097
  131PROX   H3227699  14.342  13.213  10.979
  131PROX   H3327700  14.501  13.262  10.920
  132PROX    O127701  14.341  13.481  10.928
  132PROX    C127702  14.444  13.530  10.835
  132PROX   H1127703  14.503  13.615  10.876
  132PROX   H1327704  14.527  13.457  10.819
  132PROX    C227705  14.394  13.558  10.693
  132PROX   H2127706  14.322  13.643  10.698
  132PROX    C327707  14.322  13.431  10.639
  132PROX   H3127708  14.256  13.391  10.719
  132PROX   H3227709  14.255  13.459  10.555
  132PROX   H3327710  14.397  13.354  10.612
  133PROX    O127711  14.502  13.598  10.608
  133PROX    C127712  14.557  13.730  10.626
  133PROX   H1127713  14.477  13.807  10.625
  133PROX   H1327714  14.621  13.738  10.717
  133PROX    C227715  14.654  13.772  10.507
  133PROX   H2127716  14.580  13.772  10.424
  133PROX    C327717  14.768  13.672  10.478
  133PROX   H3127718  14.806  13.693  10.376
  133PROX   H3227719  14.851  13.672  10.552
  133PROX   H3327720  14.720  13.572  10.487
  134PROX    O127721  14.697  13.899  10.529
  134PROX    C127722  14.731  13.966  10.404
  134PROX   H1127723  14.826  13.933  10.357
  134PROX   H1327724  14.652  13.956  10.327
  134PROX    C227725  14.741  14.124  10.410
  134PROX   H2127726  14.831  14.157  10.466
  134PROX    C327727  14.617  14.194  10.465
  134PROX   H3127728  14.534  14.197  10.391
  134PROX   H3227729  14.589  14.143  10.559
  134PROX   H3327730  14.637  14.300  10.489
  135PROX    O127731  14.760  14.165  10.273
  135PROX    C127732  14.804  14.295  10.259
  135PROX   H1127733  14.767  14.371  10.331
  135PROX   H1327734  14.915  14.298  10.257
  135PROX    C227735  14.763  14.345  10.120
  135PROX   H2127736  14.663  14.389  10.137
  135PROX    C327737  14.749  14.241  10.017
  135PROX   H3127738  14.673  14.165  10.046
  135PROX   H3227739  14.713  14.293   9.926
  135PROX   H3327740  14.838  14.177   9.997
  136PROX    O127741  14.848  14.450  10.084
  136PROX    C127742  14.977  14.414  10.034
  136PROX   H1127743  15.018  14.317  10.068
  136PROX   H1327744  14.970  14.409   9.923
  136PROX    C227745  15.083  14.522  10.082
  136PROX   H2127746  15.058  14.624  10.046
  136PROX    C327747  15.227  14.484  10.017
  136PROX   H3127748  15.300  14.559  10.055
  136PROX   H3227749  15.247  14.379  10.047
  136PROX   H3327750  15.213  14.487   9.907
  137PROX    O127751  15.088  14.524  10.225
  137PROX    C127752  15.166  14.628  10.282
  137PROX   H1127753  15.271  14.633  10.246
  137PROX   H1327754  15.125  14.727  10.254
  137PROX    C227755  15.166  14.621  10.438
  137PROX   H2127756  15.064  14.594  10.471
  137PROX    C327757  15.182  14.760  10.504
  137PROX   H3127758  15.119  14.843  10.467
  137PROX   H3227759  15.154  14.749  10.611
  137PROX   H3327760  15.288  14.793  10.493
  138PROX    O127761  15.259  14.525  10.481
  138PROX    C127762  15.213  14.392  10.470
  138PROX   H1127763  15.164  14.381  10.569
  138PROX   H1327764  15.134  14.376  10.393
  138PROX    C227765  15.335  14.295  10.450
  138PROX   H2127766  15.410  14.313  10.529
  138PROX    C327767  15.407  14.313  10.312
  138PROX   H3127768  15.417  14.418  10.276
  138PROX   H3227769  15.503  14.257  10.320
  138PROX   H3327770  15.347  14.268  10.231
  139PROX    O127771  15.286  14.161  10.459
  139PROX    C127772  15.214  14.128  10.578
  139PROX   H1127773  15.284  14.153  10.661
  139PROX   H1327774  15.117  14.182  10.587
  139PROX    C227775  15.173  13.981  10.589
  139PROX   H2127776  15.259  13.912  10.579
  139PROX    C327777  15.061  13.961  10.485
  139PROX   H3127778  15.071  13.856  10.450
  139PROX   H3227779  14.966  13.984  10.538
  139PROX   H3327780  15.078  14.020  10.393
  140PROX    O127781  15.123  13.952  10.722
  140PROX    C127782  15.224  13.922  10.825
  140PROX   H1127783  15.274  13.831  10.787
  140PROX   H1327784  15.300  14.003  10.824
  140PROX    C227785  15.169  13.921  10.963
  140PROX   H2127786  15.085  13.848  10.958
  140PROX    C327787  15.125  14.066  11.015
  140PROX   H3127788  15.046  14.062  11.093
  140PROX   H3227789  15.212  14.121  11.058
  140PROX   H3327790  15.086  14.126  10.931
  141PROX    O127791  15.267  13.870  11.056
  141PROX    C127792  15.212  13.783  11.158
  141PROX   H1127793  15.275  13.799  11.247
  141PROX   H1327794  15.107  13.808  11.184
  141PROX    C227795  15.224  13.634  11.127
  141PROX   H2127796  15.188  13.582  11.218
  141PROX    C327797  15.369  13.601  11.094
  141PROX   H3127798  15.385  13.654  10.998
  141PROX   H3227799  15.432  13.644  11.175
  141PROX   H3327800  15.380  13.491  11.088
  142PROX    O127801  15.147  13.589  11.012
  142PROX    C127802  15.039  13.498  11.045
  142PROX   H1127803  15.073  13.409  11.101
  142PROX   H1327804  14.971  13.547  11.118
  142PROX    C227805  14.955  13.460  10.924
  142PROX   H2127806  15.017  13.404  10.850
  142PROX    C327807  14.893  13.585  10.843
  142PROX   H3127808  14.840  13.652  10.914
  142PROX   H3227809  14.975  13.632  10.785
  142PROX   H3327810  14.824  13.559  10.760
  143PROX    O127811  14.837  13.378  10.956
  143PROX    C127812  14.876  13.252  11.017
  143PROX   H1127813  14.964  13.223  10.955
  143PROX   H1327814  14.910  13.260  11.123
  143PROX    C227815  14.763  13.143  11.008
  143PROX   H2127816  14.697  13.180  11.089
  143PROX    C327817  14.801  13.001  11.049
  143PROX   H3127818  14.718  12.928  11.043
  143PROX   H3227819  14.875  12.962  10.977
  143PROX   H3327820  14.845  13.002  11.151
  144PROX    O127821  14.687  13.141  10.889
  144PROX    C127822  14.756  13.095  10.772
  144PROX   H1127823  14.864  13.122  10.777
  144PROX   H1327824  14.742  12.985  10.767
  144PROX    C227825  14.695  13.169  10.646
  144PROX   H2127826  14.679  13.274  10.679
  144PROX    C327827  14.557  13.129  10.603
  144PROX   H3127828  14.540  13.189  10.511
  144PROX   H3227829  14.555  13.019  10.587
  144PROX   H3327830  14.483  13.145  10.684
  145PROX    O127831  14.792  13.165  10.545
  145PROX    C127832  14.786  13.277  10.459
  145PROX   H1127833  14.723  13.256  10.369
  145PROX   H1327834  14.744  13.366  10.510
  145PROX    C227835  14.936  13.307  10.419
  145PROX   H2127836  14.967  13.227  10.349
  145PROX    C327837  15.034  13.305  10.538
  145PROX   H3127838  15.142  13.312  10.512
  145PROX   H3227839  15.021  13.388  10.611
  145PROX   H3327840  15.011  13.213  10.596
  146PROX    O127841  14.944  13.436  10.356
  146PROX    C127842  14.872  13.449  10.234
  146PROX   H1127843  14.811  13.357  10.225
  146PROX   H1327844  14.804  13.536  10.222
  146PROX    C227845  14.972  13.472  10.125
  146PROX   H2127846  14.934  13.477  10.020
  146PROX    C327847  15.087  13.361  10.125
  146PROX   H3127848  15.030  13.275  10.084
  146PROX   H3227849  15.179  13.376  10.064
  146PROX   H3327850  15.127  13.327  10.224
  147PROX    O127851  15.040  13.594  10.143
  147PROX    C127852  15.002  13.702  10.061
  147PROX   H1127853  14.991  13.678   9.953
  147PROX   H1327854  14.904  13.745  10.090
  147PROX    C227855  15.098  13.829  10.083
  147PROX   H2127856  15.142  13.824  10.185
  147PROX    C327857  15.047  13.967  10.042
  147PROX   H3127858  15.106  14.049  10.088
  147PROX   H3227859  15.040  13.980   9.932
  147PROX   H3327860  14.948  13.967  10.092
  148PROX    O127861  15.209  13.815   9.998
  148PROX    C127862  15.270  13.686  10.004
  148PROX   H1127863  15.285  13.656  10.110
  148PROX   H1327864  15.215  13.610   9.945
  148PROX    C227865  15.414  13.700   9.941
  148PROX   H2127866  15.471  13.773  10.002
  148PROX    C327867  15.396  13.762   9.804
  148PROX   H3127868  15.467  13.708   9.739
  148PROX   H3227869  15.297  13.740   9.758
  148PROX   H3327870  15.418  13.870   9.800
  149PROX    O127871  15.470  13.569   9.934
  149PROX    C127872  15.547  13.532  10.048
  149PROX   H1127873  15.632  13.603  10.051
  149PROX   H1327874  15.496  13.539  10.146
  149PROX    C227875  15.606  13.395  10.025
  149PROX   H2127876  15.653  13.392   9.924
  149PROX    C327877  15.502  13.274  10.043
  149PROX   H3127878  15.553  13.192   9.988
  149PROX   H3227879  15.477  13.246  10.147
  149PROX   H3327880  15.410  13.287   9.981
  150PROX    O127881  15.709  13.368  10.127
  150PROX    C127882  15.793  13.255  10.106
  150PROX   H1127883  15.747  13.162  10.147
  150PROX   H1327884  15.811  13.256   9.996
  150PROX    C227885  15.922  13.271  10.190
  150PROX   H2127886  15.885  13.278  10.295
  150PROX    C327887  16.005  13.392  10.153
  150PROX   H3127888  16.030  13.392  10.045
  150PROX   H3227889  15.938  13.479  10.169
  150PROX   H3327890  16.102  13.404  10.206
  151PROX    O127891  16.003  13.157  10.176
  151PROX    C127892  15.956  13.043  10.242
  151PROX   H1127893  15.898  13.065  10.335
  151PROX   H1327894  15.902  12.979  10.169
  151PROX    C227895  16.084  12.961  10.295
  151PROX   H2127896  16.141  13.033  10.358
  151PROX    C327897  16.171  12.920  10.174
  151PROX   H3127898  16.195  13.013  10.119
  151PROX   H3227899  16.266  12.876  10.211
  151PROX   H3327900  16.112  12.853  10.107
  152PROX    O127901  16.053  12.844  10.367
  152PROX    C127902  15.977  12.870  10.482
  152PROX   H1127903  16.018  12.951  10.547
  152PROX   H1327904  15.874  12.897  10.451
  152PROX    C227905  15.966  12.743  10.560
  152PROX   H2127906  16.070  12.704  10.568
  152PROX    C327907  15.868  12.627  10.521
  152PROX   H3127908  15.772  12.677  10.550
  152PROX   H3227909  15.861  12.618  10.410
  152PROX   H3327910  15.902  12.539  10.578
  153PROX    O127911  15.922  12.790  10.687
  153PROX    C127912  15.999  12.740  10.806
  153PROX   H1127913  16.032  12.638  10.777
  153PROX   H1327914  16.089  12.804  10.816
  153PROX    C227915  15.909  12.747  10.930
  153PROX   H2127916  15.869  12.849  10.948
  153PROX    C327917  15.984  12.718  11.060
  153PROX   H3127918  15.921  12.719  11.152
  153PROX   H3227919  16.041  12.623  11.053
  153PROX   H3327920  16.061  12.797  11.071
  154PROX    O127921  15.800  12.648  10.929
  154PROX    C127922  15.678  12.700  10.873
  154PROX   H1127923  15.707  12.792  10.817
  154PROX   H1327924  15.615  12.628  10.817
  154PROX    C227925  15.592  12.742  10.991
  154PROX   H2127926  15.659  12.744  11.079
  154PROX    C327927  15.475  12.635  11.015
  154PROX   H3127928  15.434  12.655  11.116
  154PROX   H3227929  15.395  12.646  10.939
  154PROX   H3327930  15.524  12.536  11.022
  155PROX    O127931  15.532  12.867  10.974
  155PROX    C127932  15.615  12.979  10.994
  155PROX   H1127933  15.546  13.058  11.029
  155PROX   H1327934  15.684  12.973  11.081
  155PROX    C227935  15.679  13.048  10.871
  155PROX   H2127936  15.761  12.990  10.824
  155PROX    C327937  15.746  13.175  10.923
  155PROX   H3127938  15.675  13.227  10.991
  155PROX   H3227939  15.831  13.150  10.990
  155PROX   H3327940  15.768  13.234  10.832
  156PROX    O127941  15.581  13.092  10.779
  156PROX    C127942  15.548  12.998  10.682
  156PROX   H1127943  15.556  12.893  10.717
  156PROX   H1327944  15.447  13.027  10.646
  156PROX    C227945  15.643  13.021  10.560
  156PROX   H2127946  15.742  12.977  10.587
  156PROX    C327947  15.662  13.167  10.512
  156PROX   H3127948  15.575  13.216  10.463
  156PROX   H3227949  15.705  13.224  10.597
  156PROX   H3327950  15.740  13.154  10.435
  157PROX    O127951  15.621  12.925  10.453
  157PROX    C127952  15.502  12.948  10.374
  157PROX   H1127953  15.412  12.942  10.440
  157PROX   H1327954  15.506  13.048  10.326
  157PROX    C227955  15.487  12.832  10.272
  157PROX   H2127956  15.500  12.733  10.321
  157PROX    C327957  15.601  12.833  10.174
  157PROX   H3127958  15.698  12.810  10.223
  157PROX   H3227959  15.580  12.754  10.098
  157PROX   H3327960  15.616  12.935  10.134
  158PROX    O127961  15.364  12.851  10.206
  158PROX    C127962  15.304  12.726  10.166
  158PROX   H1127963  15.209  12.751  10.116
  158PROX   H1327964  15.373  12.686  10.089
  158PROX    C227965  15.247  12.638  10.286
  158PROX   H2127966  15.323  12.567  10.324
  158PROX    C327967  15.127  12.552  10.246
  158PROX   H3127968  15.047  12.613  10.200
  158PROX   H3227969  15.160  12.478  10.169
  158PROX   H3327970  15.077  12.500  10.330
  159PROX    O127971  15.207  12.724  10.396
  159PROX    C127972  15.171  12.660  10.523
  159PROX   H1127973  15.062  12.671  10.543
  159PROX   H1327974  15.198  12.554  10.505
  159PROX    C227975  15.248  12.718  10.646
  159PROX   H2127976  15.261  12.828  10.636
  159PROX    C327977  15.387  12.655  10.653
  159PROX   H3127978  15.432  12.672  10.553
  159PROX   H3227979  15.451  12.716  10.720
  159PROX   H3327980  15.381  12.548  10.683
  160PROX    O127981  15.176  12.695  10.770
  160PROX    C127982  15.088  12.800  10.799
  160PROX   H1127983  15.055  12.853  10.707
  160PROX   H1327984  15.001  12.767  10.860
  160PROX    C227985  15.164  12.898  10.896
  160PROX   H2127986  15.273  12.898  10.872
  160PROX    C327987  15.145  12.862  11.050
  160PROX   H3127988  15.037  12.848  11.070
  160PROX   H3227989  15.192  12.764  11.068
  160PROX   H3327990  15.184  12.930  11.129
  161PROX    O127991  15.111  13.031  10.892
  161PROX    C127992  15.199  13.121  10.825
  161PROX   H1127993  15.262  13.074  10.746
  161PROX   H1327994  15.135  13.196  10.775
  161PROX    C227995  15.298  13.194  10.914
  161PROX   H2127996  15.386  13.125  10.910
  161PROX    C327997  15.259  13.206  11.062
  161PROX   H3127998  15.295  13.112  11.110
  161PROX   H3227999  15.328  13.280  11.107
  161PROX   H3328000  15.156  13.230  11.095
  162PROX    O128001  15.321  13.323  10.861
  162PROX    C128002  15.406  13.336  10.749
  162PROX   H1128003  15.508  13.315  10.788
  162PROX   H1328004  15.370  13.256  10.681
  162PROX    C228005  15.416  13.486  10.705
  162PROX   H2128006  15.466  13.534  10.791
  162PROX    C328007  15.274  13.542  10.683
  162PROX   H3128008  15.269  13.648  10.649
  162PROX   H3228009  15.213  13.485  10.610
  162PROX   H3328010  15.220  13.541  10.780
  163PROX    O128011  15.495  13.496  10.581
  163PROX    C128012  15.561  13.618  10.570
  163PROX   H1128013  15.486  13.699  10.574
  163PROX   H1328014  15.638  13.634  10.649
  163PROX    C228015  15.636  13.634  10.438
  163PROX   H2128016  15.562  13.613  10.357
  163PROX    C328017  15.767  13.560  10.427
  163PROX   H3128018  15.846  13.588  10.500
  163PROX   H3228019  15.739  13.454  10.444
  163PROX   H3328020  15.801  13.555  10.321
  164PROX    O128021  15.673  13.772  10.429
  164PROX    C128022  15.681  13.814  10.296
  164PROX   H1128023  15.781  13.850  10.262
  164PROX   H1328024  15.666  13.730  10.226
  164PROX    C228025  15.569  13.917  10.255
  164PROX   H2128026  15.583  14.007  10.318
  164PROX    C328027  15.422  13.868  10.294
  164PROX   H3128028  15.420  13.837  10.400
  164PROX   H3228029  15.359  13.959  10.285
  164PROX   H3328030  15.395  13.784  10.226
  165PROX    O128031  15.596  13.948  10.121
  165PROX    C128032  15.517  14.058  10.070
  165PROX   H1128033  15.436  14.003  10.018
  165PROX   H1328034  15.459  14.110  10.150
  165PROX    C228035  15.597  14.149   9.979
  165PROX   H2128036  15.628  14.078   9.899
  165PROX    C328037  15.712  14.217  10.058
  165PROX   H3128038  15.676  14.297  10.126
  165PROX   H3228039  15.753  14.137  10.123
  165PROX   H3328040  15.782  14.263   9.985
  166ETHO    O128041  15.499  14.236   9.921
  166ETHO    C128042  15.555  14.310   9.819
  166ETHO   H1128043  15.641  14.372   9.853
  166ETHO   H1328044  15.468  14.376   9.798
  166ETHO    C228045  15.578  14.236   9.685
  166ETHO   H2128046  15.590  14.306   9.599
  166ETHO   H2328047  15.490  14.173   9.656
  167ETHO    O128048  15.700  14.158   9.697
  167ETHO    C128049  15.731  14.077   9.586
  167ETHO   H1128050  15.650  14.001   9.575
  167ETHO   H1328051  15.745  14.131   9.491
  167ETHO    C228052  15.860  14.008   9.619
  167ETHO   H2128053  15.884  13.945   9.530
  167ETHO   H2328054  15.850  13.937   9.704
  168ETHO    O128055  15.965  14.102   9.646
  168ETHO    C128056  16.097  14.042   9.651
  168ETHO   H1128057  16.105  13.969   9.568
  168ETHO   H1328058  16.109  13.995   9.751
  168ETHO    C228059  16.217  14.141   9.647
  168ETHO   H2128060  16.226  14.167   9.540
  168ETHO   H2328061  16.309  14.084   9.672
  169ETHO    O128062  16.225  14.253   9.735
  169ETHO    C128063  16.320  14.345   9.680
  169ETHO   H1128064  16.403  14.285   9.637
  169ETHO   H1328065  16.277  14.391   9.588
  169ETHO    C228066  16.360  14.465   9.774
  169ETHO   H2128067  16.441  14.525   9.728
  169ETHO   H2328068  16.402  14.416   9.864
  170ETHO    O128069  16.237  14.534   9.800
  170ETHO    C128070  16.256  14.653   9.871
  170ETHO   H1128071  16.179  14.727   9.841
  170ETHO   H1328072  16.352  14.702   9.846
  170ETHO    C228073  16.250  14.633  10.024
  170ETHO   H2128074  16.148  14.604  10.054
  170ETHO   H2328075  16.276  14.737  10.056
  171ETHO    O128076  16.335  14.534  10.076
  171ETHO    C128077  16.347  14.557  10.216
  171ETHO   H1128078  16.361  14.665  10.239
  171ETHO   H1328079  16.257  14.518  10.267
  171ETHO    C228080  16.472  14.484  10.269
  171ETHO   H2128081  16.541  14.564  10.304
  171ETHO   H2328082  16.512  14.425  10.184
  172ETHO    O128083  16.437  14.396  10.371
  172ETHO    C128084  16.548  14.309  10.405
  172ETHO   H1128085  16.606  14.283  10.314
  172ETHO   H1328086  16.511  14.216  10.453
  172ETHO    C228087  16.646  14.391  10.491
  172ETHO   H2128088  16.683  14.343  10.584
  172ETHO   H2328089  16.600  14.488  10.521
  173ETHO    O128090  16.761  14.419  10.411
  173ETHO    C128091  16.859  14.500  10.477
  173ETHO   H1128092  16.822  14.591  10.529
  173ETHO   H1328093  16.922  14.436  10.543
  173ETHO    C228094  16.965  14.552  10.370
  173ETHO   H2128095  16.905  14.598  10.289
  173ETHO   H2328096  17.027  14.629  10.422
  174ETHO    O128097  17.030  14.428  10.334
  174ETHO    C128098  17.147  14.455  10.260
  174ETHO   H1128099  17.139  14.552  10.206
  174ETHO   H1328100  17.230  14.476  10.332
  174ETHO    C228101  17.189  14.333  10.176
  174ETHO   H2128102  17.154  14.246  10.236
  174ETHO   H2328103  17.300  14.332  10.166
  175ETHO    O128104  17.118  14.336  10.052
  175ETHO    C128105  17.125  14.208   9.989
  175ETHO   H1128106  17.224  14.164  10.014
  175ETHO   H1328107  17.051  14.131  10.019
  175ETHO    C228108  17.106  14.224   9.833
  175ETHO   H2128109  17.145  14.132   9.785
  175ETHO   H2328110  17.174  14.311   9.817
  176ETHO    O128111  16.969  14.238   9.800
  176ETHO    C128112  16.959  14.293   9.662
  176ETHO   H1128113  16.998  14.397   9.663
  176ETHO   H1328114  17.020  14.244   9.583
  176ETHO    C228115  16.812  14.269   9.620
  176ETHO   H2128116  16.785  14.358   9.558
  176ETHO   H2328117  16.763  14.285   9.719
  177ETHO    O128118  16.777  14.143   9.562
  177ETHO    C128119  16.760  14.040   9.667
  177ETHO   H1128120  16.681  14.082   9.733
  177ETHO   H1328121  16.857  14.038   9.722
  177ETHO    C228122  16.716  13.910   9.610
  177ETHO   H2128123  16.638  13.923   9.532
  177ETHO   H2328124  16.679  13.848   9.693
  178ETHO    O128125  16.831  13.845   9.554
  178ETHO    C128126  16.806  13.717   9.495
  178ETHO   H1128127  16.697  13.706   9.519
  178ETHO   H1328128  16.810  13.728   9.385
  178ETHO    C228129  16.892  13.605   9.551
  178ETHO   H2128130  16.993  13.652   9.540
  178ETHO   H2328131  16.894  13.509   9.495
  179ETHO    O128132  16.885  13.577   9.691
  179ETHO    C128133  16.963  13.462   9.726
  179ETHO   H1128134  17.065  13.477   9.685
  179ETHO   H1328135  16.910  13.378   9.676
  179ETHO    C228136  16.972  13.430   9.875
  179ETHO   H2128137  17.030  13.509   9.928
  179ETHO   H2328138  17.027  13.335   9.895
  180ETHO    O128139  16.851  13.413   9.936
  180ETHO    C128140  16.869  13.359  10.067
  180ETHO   H1128141  16.962  13.401  10.110
  180ETHO   H1328142  16.784  13.394  10.129
  180ETHO    C228143  16.863  13.203  10.070
  180ETHO   H2128144  16.791  13.172   9.991
  180ETHO   H2328145  16.822  13.163  10.165
  181ETHO    O128146  16.986  13.148  10.039
  181ETHO    C128147  17.081  13.165  10.146
  181ETHO   H1128148  17.081  13.270  10.183
  181ETHO   H1328149  17.180  13.132  10.108
  181ETHO    C228150  17.052  13.080  10.276
  181ETHO   H2128151  17.149  13.054  10.323
  181ETHO   H2328152  16.987  12.997  10.239
  182ETHO    O128153  16.986  13.149  10.379
  182ETHO    C128154  16.883  13.065  10.435
  182ETHO   H1128155  16.805  13.124  10.487
  182ETHO   H1328156  16.822  13.018  10.355
  182ETHO    C228157  16.939  12.968  10.543
  182ETHO   H2128158  16.858  12.954  10.617
  182ETHO   H2328159  17.031  13.006  10.593
  183ETHO    O128160  16.967  12.844  10.479
  183ETHO    C128161  17.003  12.752  10.584
  183ETHO   H1128162  16.913  12.732  10.647
  183ETHO   H1328163  17.086  12.797  10.641
  183ETHO    C228164  17.061  12.627  10.520
  183ETHO   H2128165  16.991  12.572  10.454
  183ETHO   H2328166  17.079  12.557  10.604
  184ETHO    O128167  17.186  12.660  10.463
  184ETHO    C128168  17.254  12.542  10.428
  184ETHO   H1128169  17.247  12.466  10.509
  184ETHO   H1328170  17.203  12.509  10.335
  184ETHO    C228171  17.402  12.561  10.400
  184ETHO   H2128172  17.452  12.462  10.392
  184ETHO   H2328173  17.449  12.613  10.486
  185ETHO    O128174  17.428  12.641  10.281
  185ETHO    C128175  17.570  12.662  10.252
  185ETHO   H1128176  17.626  12.679  10.347
  185ETHO   H1328177  17.595  12.560  10.216
  185ETHO    C228178  17.603  12.758  10.146
  185ETHO   H2128179  17.555  12.738  10.048
  185ETHO   H2328180  17.712  12.743  10.131
  186ETHO    O128181  17.578  12.891  10.192
  186ETHO    C128182  17.613  12.994  10.098
  186ETHO   H1128183  17.679  12.950  10.021
  186ETHO   H1328184  17.524  13.042  10.052
  186ETHO    C228185  17.697  13.097  10.167
  186ETHO   H2128186  17.783  13.045  10.212
  186ETHO   H2328187  17.633  13.125  10.254
  187ETHO    O128188  17.717  13.221  10.098
  187ETHO    C128189  17.808  13.294  10.179
  187ETHO   H1128190  17.760  13.313  10.278
  187ETHO   H1328191  17.894  13.225  10.197
  187ETHO    C228192  17.851  13.430  10.114
  187ETHO   H2128193  17.910  13.491  10.185
  187ETHO   H2328194  17.757  13.481  10.082
  188ETHO    O128195  17.934  13.395  10.007
  188ETHO    C128196  17.974  13.505   9.934
  188ETHO   H1128197  18.037  13.574   9.994
  188ETHO   H1328198  17.878  13.549   9.899
  188ETHO    C228199  18.046  13.457   9.817
  188ETHO   H2128200  18.137  13.394   9.832
  188ETHO   H2328201  18.088  13.545   9.764
  189ETHO    O128202  17.958  13.410   9.714
  189ETHO    C128203  17.911  13.513   9.631
  189ETHO   H1128204  17.825  13.559   9.684
  189ETHO   H1328205  17.990  13.587   9.607
  189ETHO    C228206  17.852  13.461   9.498
  189ETHO   H2128207  17.828  13.548   9.433
  189ETHO   H2328208  17.767  13.390   9.503
  190ETHO    O128209  17.955  13.393   9.437
  190ETHO    C128210  17.923  13.360   9.301
  190ETHO   H1128211  17.893  13.451   9.245
  190ETHO   H1328212  17.839  13.287   9.303
  190ETHO    C228213  18.046  13.307   9.236
  190ETHO   H2128214  18.026  13.270   9.133
  190ETHO   H2328215  18.077  13.221   9.300
  191ETHO    O128216  18.156  13.401   9.238
  191ETHO    C128217  18.154  13.488   9.126
  191ETHO   H1128218  18.119  13.446   9.029
  191ETHO   H1328219  18.083  13.572   9.140
  191ETHO    C228220  18.296  13.545   9.121
  191ETHO   H2128221  18.324  13.595   9.026
  191ETHO   H2328222  18.359  13.454   9.122
  192ETHO    O128223  18.326  13.629   9.235
  192ETHO    C128224  18.464  13.658   9.251
  192ETHO   H1128225  18.499  13.734   9.178
  192ETHO   H1328226  18.532  13.571   9.238
  192ETHO    C228227  18.504  13.717   9.392
  192ETHO   H2128228  18.434  13.801   9.410
  192ETHO   H2328229  18.609  13.754   9.386
  193ETHO    O128230  18.495  13.621   9.498
  193ETHO    C128231  18.511  13.681   9.625
  193ETHO   H1128232  18.608  13.734   9.629
  193ETHO   H1328233  18.435  13.760   9.642
  193ETHO    C228234  18.501  13.582   9.737
  193ETHO   H2128235  18.416  13.512   9.725
  193ETHO   H2328236  18.498  13.635   9.834
  194ETHO    O128237  18.615  13.497   9.736
  194ETHO    C128238  18.626  13.400   9.837
  194ETHO   H1128239  18.531  13.343   9.829
  194ETHO   H1328240  18.634  13.448   9.937
  194ETHO    C228241  18.759  13.326   9.817
  194ETHO   H2128242  18.790  13.251   9.893
  194ETHO   H2328243  18.842  13.400   9.814
  195ETHO    O128244  18.744  13.255   9.688
  195ETHO    C128245  18.859  13.178   9.662
  195ETHO   H1128246  18.878  13.100   9.739
  195ETHO   H1328247  18.830  13.125   9.568
  195ETHO    C228248  18.983  13.263   9.642
  195ETHO   H2128249  19.056  13.187   9.607
  195ETHO   H2328250  19.020  13.315   9.733
  196ETHO    O128251  18.972  13.353   9.538
  196ETHO    C128252  19.089  13.371   9.465
  196ETHO   H1128253  19.172  13.382   9.539
  196ETHO   H1328254  19.127  13.278   9.417
  196ETHO    C228255  19.090  13.500   9.386
  196ETHO   H2128256  19.000  13.504   9.322
  196ETHO   H2328257  19.176  13.498   9.315
  197ETHO    O128258  19.114  13.616   9.471
  197ETHO    C128259  19.128  13.737   9.386
  197ETHO   H1128260  19.197  13.714   9.302
  197ETHO   H1328261  19.032  13.765   9.339
  197ETHO    C228262  19.178  13.854   9.474
  197ETHO   H2128263  19.111  13.871   9.561
  197ETHO   H2328264  19.166  13.954   9.426
  198ETHO    O128265  19.316  13.833   9.503
  198ETHO    C128266  19.374  13.940   9.579
  198ETHO   H1128267  19.458  13.979   9.517
  198ETHO   H1328268  19.299  14.016   9.610
  198ETHO    C228269  19.432  13.867   9.710
  198ETHO   H2128270  19.344  13.809   9.745
  198ETHO   H2328271  19.451  13.947   9.784
  199ETHO    O128272  19.546  13.793   9.699
  199ETHO    C128273  19.580  13.710   9.807
  199ETHO   H1128274  19.618  13.613   9.766
  199ETHO   H1328275  19.485  13.693   9.863
  199ETHO    C228276  19.690  13.757   9.908
  199ETHO   H2128277  19.772  13.789   9.840
  199ETHO   H2328278  19.732  13.670   9.962
  200ETHO    O128279  19.652  13.857   9.998
  200ETHO    C128280  19.759  13.898  10.085
  200ETHO   H1128281  19.808  13.805  10.122
  200ETHO   H1328282  19.826  13.966  10.028
  200ETHO    C228283  19.707  13.988  10.201
  200ETHO   H2128284  19.657  14.077  10.157
  200ETHO   H2328285  19.795  14.027  10.257
  201ETHO    O128286  19.636  13.925  10.306
  201ETHO    C128287  19.605  14.019  10.404
  201ETHO   H1128288  19.602  14.122  10.362
  201ETHO   H1328289  19.699  14.032  10.463
  201ETHO    C228290  19.477  13.999  10.483
  201ETHO   H2128291  19.385  14.028  10.428
  201ETHO   H2328292  19.492  14.065  10.571
  202ETHO    O128293  19.466  13.862  10.529
  202ETHO    C128294  19.341  13.841  10.586
  202ETHO   H1128295  19.307  13.934  10.637
  202ETHO   H1328296  19.257  13.829  10.514
  202ETHO    C228297  19.338  13.735  10.704
  202ETHO   H2128298  19.362  13.641  10.650
  202ETHO   H2328299  19.233  13.724  10.739
  203ETHO    O128300  19.422  13.753  10.818
  203ETHO    C128301  19.494  13.636  10.837
  203ETHO   H1128302  19.542  13.623  10.738
  203ETHO   H1328303  19.422  13.556  10.865
  203ETHO    C228304  19.614  13.643  10.933
  203ETHO   H2128305  19.580  13.668  11.036
  203ETHO   H2328306  19.674  13.735  10.916
  204ETHO    O128307  19.705  13.536  10.924
  204ETHO    C128308  19.666  13.422  11.001
  204ETHO   H1128309  19.753  13.414  11.070
  204ETHO   H1328310  19.568  13.437  11.051
  204ETHO    C228311  19.667  13.306  10.905
  204ETHO   H2128312  19.670  13.205  10.949
  204ETHO   H2328313  19.745  13.310  10.826
  205ETHO    O128314  19.538  13.312  10.840
  205ETHO    C128315  19.495  13.196  10.767
  205ETHO   H1128316  19.481  13.107  10.832
  205ETHO   H1328317  19.575  13.172  10.694
  205ETHO    C228318  19.379  13.227  10.688
  205ETHO   H2128319  19.398  13.328  10.645
  205ETHO   H2328320  19.282  13.238  10.741
  206ETHO    O128321  19.376  13.129  10.584
  206ETHO    C128322  19.394  13.191  10.456
  206ETHO   H1128323  19.308  13.257  10.434
  206ETHO   H1328324  19.488  13.250  10.456
  206ETHO    C228325  19.393  13.096  10.336
  206ETHO   H2128326  19.303  13.034  10.356
  206ETHO   H2328327  19.376  13.146  10.238
  207ETHO    O128328  19.511  13.015  10.333
  207ETHO    C128329  19.518  12.948  10.210
  207ETHO   H1128330  19.414  12.916  10.186
  207ETHO   H1328331  19.583  12.863  10.239
  207ETHO    C228332  19.588  13.032  10.102
  207ETHO   H2128333  19.564  13.140  10.096
  207ETHO   H2328334  19.538  12.995  10.010
  208ETHO    O128335  19.730  13.011  10.085
  208ETHO    C128336  19.796  13.137  10.042
  208ETHO   H1128337  19.737  13.192   9.965
  208ETHO   H1328338  19.795  13.203  10.131
  208ETHO    C228339  19.941  13.122   9.995
  208ETHO   H2128340  19.978  13.024  10.031
  208ETHO   H2328341  20.010  13.200  10.034
  209ETHO    O128342  19.945  13.114   9.851
  209ETHO    C128343  20.079  13.102   9.800
  209ETHO   H1128344  20.140  13.029   9.857
  209ETHO   H1328345  20.125  13.203   9.802
  209ETHO    C228346  20.080  13.052   9.655
  209ETHO   H2128347  20.180  13.030   9.611
  209ETHO   H2328348  20.028  13.120   9.584
  210ETHO    O128349  20.000  12.931   9.654
  210ETHO    C128350  20.013  12.839   9.542
  210ETHO   H1128351  20.117  12.799   9.536
  210ETHO   H1328352  19.948  12.756   9.576
  210ETHO    C228353  19.968  12.902   9.413
  210ETHO   H2128354  19.874  12.957   9.436
  210ETHO   H2328355  19.925  12.826   9.345
  211ETHO    O128356  20.067  12.983   9.336
  211ETHO    C128357  20.008  13.075   9.239
  211ETHO   H1128358  19.972  13.017   9.153
  211ETHO   H1328359  19.920  13.124   9.286
  211ETHO    C228360  20.099  13.188   9.194
  211ETHO   H2128361  20.041  13.245   9.118
  211ETHO   H2328362  20.189  13.147   9.143
  212ETHO    O128363  20.144  13.275   9.297
  212ETHO    C128364  20.082  13.408   9.289
  212ETHO   H1128365  20.123  13.468   9.205
  212ETHO   H1328366  19.972  13.398   9.277
  212ETHO    C228367  20.109  13.485   9.420
  212ETHO   H2128368  20.080  13.424   9.508
  212ETHO   H2328369  20.055  13.582   9.417
  213ETHO    O128370  20.252  13.513   9.429
  213ETHO    C128371  20.291  13.623   9.502
  213ETHO   H1128372  20.325  13.702   9.432
  213ETHO   H1328373  20.196  13.664   9.543
  213ETHO    C228374  20.383  13.583   9.618
  213ETHO   H2128375  20.347  13.491   9.668
  213ETHO   H2328376  20.401  13.666   9.689
  214ETHO    O128377  20.507  13.557   9.548
  214ETHO    C128378  20.608  13.520   9.643
  214ETHO   H1128379  20.591  13.415   9.674
  214ETHO   H1328380  20.595  13.579   9.736
  214ETHO    C228381  20.746  13.537   9.569
  214ETHO   H2128382  20.745  13.606   9.482
  214ETHO   H2328383  20.785  13.446   9.518
  215ETHO    O128384  20.845  13.592   9.660
  215ETHO    C128385  20.970  13.607   9.598
  215ETHO   H1128386  21.017  13.508   9.577
  215ETHO   H1328387  20.967  13.671   9.508
  215ETHO    C228388  21.067  13.688   9.690
  215ETHO   H2128389  21.169  13.687   9.648
  215ETHO   H2328390  21.069  13.649   9.794
  216ETHO    O128391  21.029  13.829   9.703
  216ETHO    C128392  20.906  13.856   9.769
  216ETHO   H1128393  20.896  13.784   9.853
  216ETHO   H1328394  20.819  13.850   9.701
  216ETHO    C228395  20.900  13.995   9.827
  216ETHO   H2128396  20.793  14.007   9.855
  216ETHO   H2328397  20.922  14.074   9.752
  217ETHO    O128398  20.970  14.014   9.951
  217ETHO    C128399  20.992  14.150   9.977
  217ETHO   H1128400  21.054  14.166  10.067
  217ETHO   H1328401  21.053  14.197   9.897
  217ETHO    C228402  20.861  14.223   9.995
  217ETHO   H2128403  20.791  14.210   9.910
  217ETHO   H2328404  20.880  14.331  10.008
  218ETHO    O128405  20.805  14.182  10.120
  218ETHO    C128406  20.675  14.231  10.134
  218ETHO   H1128407  20.630  14.204  10.037
  218ETHO   H1328408  20.676  14.342  10.130
  218ETHO    C228409  20.607  14.168  10.254
  218ETHO   H2128410  20.657  14.193  10.350
  218ETHO   H2328411  20.604  14.058  10.236
  219ETHO    O128412  20.480  14.219  10.268
  219ETHO    C128413  20.428  14.205  10.405
  219ETHO   H1128414  20.489  14.254  10.484
  219ETHO   H1328415  20.330  14.258  10.401
  219ETHO    C228416  20.403  14.060  10.447
  219ETHO   H2128417  20.497  14.025  10.493
  219ETHO   H2328418  20.376  14.002  10.356
  220ETHO    O128419  20.292  14.048  10.540
  220ETHO    C128420  20.298  13.920  10.606
  220ETHO   H1128421  20.401  13.881  10.614
  220ETHO   H1328422  20.235  13.847  10.551
  220ETHO    C228423  20.242  13.934  10.750
  220ETHO   H2128424  20.315  14.001  10.800
  220ETHO   H2328425  20.260  13.841  10.807
  221ETHO    O128426  20.114  13.990  10.765
  221ETHO    C128427  20.010  13.893  10.749
  221ETHO   H1128428  20.033  13.832  10.659
  221ETHO   H1328429  20.015  13.819  10.832
  221ETHO    C228430  19.869  13.956  10.736
  221ETHO   H2128431  19.799  13.877  10.700
  221ETHO   H2328432  19.883  14.035  10.659
  222ETHO    O128433  19.823  14.019  10.857
  222ETHO    C128434  19.681  14.041  10.856
  222ETHO   H1128435  19.652  14.106  10.770
  222ETHO   H1328436  19.627  13.944  10.853
  222ETHO    C228437  19.653  14.106  10.991
  222ETHO   H2128438  19.724  14.191  10.990
  222ETHO   H2328439  19.678  14.036  11.073
  223ETHO    O128440  19.517  14.154  10.989
  223ETHO    C128441  19.427  14.045  11.006
  223ETHO   H1128442  19.411  14.006  10.903
  223ETHO   H1328443  19.453  13.952  11.060
  223ETHO    C228444  19.296  14.106  11.044
  223ETHO   H2128445  19.214  14.032  11.030
  223ETHO   H2328446  19.272  14.193  10.980
  224ETHO    O128447  19.286  14.129  11.182
  224ETHO    C128448  19.176  14.211  11.207
  224ETHO   H1128449  19.184  14.308  11.153
  224ETHO   H1328450  19.080  14.165  11.175
  224ETHO    C228451  19.171  14.244  11.357
  224ETHO   H2128452  19.182  14.149  11.413
  224ETHO   H2328453  19.067  14.283  11.367
  225ETHO    O128454  19.257  14.348  11.398
  225ETHO    C128455  19.242  14.384  11.533
  225ETHO   H1128456  19.153  14.333  11.578
  225ETHO   H1328457  19.240  14.495  11.540
  225ETHO    C228458  19.362  14.352  11.614
  225ETHO   H2128459  19.395  14.251  11.583
  225ETHO   H2328460  19.323  14.351  11.718
  226ETHO    O128461  19.480  14.436  11.609
  226ETHO    C128462  19.556  14.421  11.727
  226ETHO   H1128463  19.641  14.493  11.727
  226ETHO   H1328464  19.490  14.443  11.814
  226ETHO    C228465  19.619  14.284  11.732
  226ETHO   H2128466  19.685  14.299  11.820
  226ETHO   H2328467  19.677  14.259  11.641
  227ETHO    O128468  19.534  14.178  11.768
  227ETHO    C128469  19.615  14.064  11.802
  227ETHO   H1128470  19.642  14.058  11.910
  227ETHO   H1328471  19.711  14.060  11.745
  227ETHO    C228472  19.538  13.934  11.772
  227ETHO   H2128473  19.441  13.922  11.826
  227ETHO   H2328474  19.600  13.845  11.795
  228ETHO    O128475  19.535  13.922  11.627
  228ETHO    C128476  19.401  13.870  11.588
  228ETHO   H1128477  19.389  13.771  11.637
  228ETHO   H1328478  19.318  13.915  11.646
  228ETHO    C228479  19.373  13.856  11.432
  228ETHO   H2128480  19.454  13.784  11.410
  228ETHO   H2328481  19.385  13.956  11.385
  229ETHO    O128482  19.248  13.808  11.401
  229ETHO    C128483  19.211  13.804  11.265
  229ETHO   H1128484  19.273  13.735  11.203
  229ETHO   H1328485  19.222  13.908  11.227
  229ETHO    C228486  19.065  13.746  11.252
  229ETHO   H2128487  19.044  13.669  11.329
  229ETHO   H2328488  19.061  13.686  11.158
  230ETHO    O128489  18.962  13.847  11.247
  230ETHO    C128490  18.912  13.871  11.373
  230ETHO   H1128491  18.865  13.778  11.413
  230ETHO   H1328492  18.993  13.892  11.447
  230ETHO    C228493  18.810  13.987  11.381
  230ETHO   H2128494  18.776  13.983  11.487
  230ETHO   H2328495  18.724  13.973  11.313
  231ETHO    O128496  18.876  14.113  11.359
  231ETHO    C128497  18.792  14.227  11.336
  231ETHO   H1128498  18.850  14.322  11.328
  231ETHO   H1328499  18.729  14.229  11.427
  231ETHO    C228500  18.699  14.240  11.215
  231ETHO   H2128501  18.639  14.332  11.229
  231ETHO   H2328502  18.617  14.166  11.211
  232ETHO    O128503  18.762  14.244  11.084
  232ETHO    C128504  18.817  14.119  11.040
  232ETHO   H1128505  18.856  14.059  11.125
  232ETHO   H1328506  18.738  14.057  10.993
  232ETHO    C228507  18.919  14.122  10.923
  232ETHO   H2128508  18.962  14.020  10.919
  232ETHO   H2328509  19.006  14.189  10.935
  233ETHO    O128510  18.840  14.135  10.809
  233ETHO    C128511  18.918  14.151  10.695
  233ETHO   H1128512  18.991  14.068  10.690
  233ETHO   H1328513  18.841  14.148  10.615
  233ETHO    C228514  18.986  14.292  10.682
  233ETHO   H2128515  18.914  14.375  10.695
  233ETHO   H2328516  19.013  14.296  10.574
  234ETHO    O128517  19.094  14.323  10.766
  234ETHO    C128518  19.167  14.433  10.722
  234ETHO   H1128519  19.098  14.514  10.691
  234ETHO   H1328520  19.216  14.477  10.811
  234ETHO    C228521  19.272  14.402  10.610
  234ETHO   H2128522  19.340  14.323  10.649
  234ETHO   H2328523  19.351  14.478  10.594
  235ETHO    O128524  19.222  14.367  10.481
  235ETHO    C128525  19.149  14.477  10.423
  235ETHO   H1128526  19.046  14.474  10.463
  235ETHO   H1328527  19.190  14.571  10.467
  235ETHO    C228528  19.151  14.469  10.265
  235ETHO   H2128529  19.065  14.528  10.227
  235ETHO   H2328530  19.130  14.364  10.237
  236ETHO    O128531  19.277  14.520  10.215
  236ETHO    C128532  19.286  14.661  10.205
  236ETHO   H1128533  19.394  14.685  10.202
  236ETHO   H1328534  19.238  14.712  10.291
  236ETHO    C228535  19.206  14.726  10.085
  236ETHO   H2128536  19.222  14.835  10.099
  236ETHO   H2328537  19.098  14.699  10.095
  237ETHO    O128538  19.259  14.689   9.951
  237ETHO    C128539  19.153  14.633   9.880
  237ETHO   H1128540  19.110  14.544   9.931
  237ETHO   H1328541  19.075  14.712   9.878
  237ETHO    C228542  19.187  14.591   9.737
  237ETHO   H2128543  19.209  14.685   9.682
  237ETHO   H2328544  19.102  14.549   9.680
  238ETHO    O128545  19.305  14.505   9.732
  238ETHO    C128546  19.339  14.474   9.602
  238ETHO   H1128547  19.341  14.572   9.550
  238ETHO   H1328548  19.265  14.406   9.555
  238ETHO    C228549  19.474  14.403   9.598
  238ETHO   H2128550  19.478  14.348   9.501
  238ETHO   H2328551  19.489  14.336   9.685
  239ETHO    O128552  19.585  14.495   9.601
  239ETHO    C128553  19.714  14.432   9.614
  239ETHO   H1128554  19.717  14.367   9.704
  239ETHO   H1328555  19.728  14.369   9.523
  239ETHO    C228556  19.828  14.533   9.643
  239ETHO   H2128557  19.828  14.604   9.558
  239ETHO   H2328558  19.800  14.577   9.741
  240ETHO    O128559  19.958  14.471   9.638
  240ETHO    C128560  20.050  14.546   9.724
  240ETHO   H1128561  20.139  14.481   9.738
  240ETHO   H1328562  19.996  14.557   9.820
  240ETHO    C228563  20.082  14.679   9.675
  240ETHO   H2128564  20.107  14.749   9.758
  240ETHO   H2328565  20.006  14.730   9.612
  241ETHO    O128566  20.196  14.650   9.584
  241ETHO    C128567  20.267  14.770   9.544
  241ETHO   H1128568  20.233  14.797   9.442
  241ETHO   H1328569  20.254  14.860   9.607
  241ETHO    C228570  20.416  14.741   9.540
  241ETHO   H2128571  20.442  14.677   9.627
  241ETHO   H2328572  20.471  14.837   9.551
  242ETHO    O128573  20.453  14.682   9.417
  242ETHO    C128574  20.440  14.550   9.408
  242ETHO   H1128575  20.339  14.521   9.445
  242ETHO   H1328576  20.510  14.501   9.479
  242ETHO    C228577  20.467  14.498   9.269
  242ETHO   H2128578  20.400  14.554   9.200
  242ETHO   H2328579  20.452  14.390   9.246
  243ETHO    O128580  20.605  14.526   9.241
  243ETHO    C128581  20.617  14.651   9.163
  243ETHO   H1128582  20.558  14.657   9.070
  243ETHO   H1328583  20.582  14.733   9.229
  243ETHO    C228584  20.762  14.681   9.124
  243ETHO   H2128585  20.830  14.661   9.210
  243ETHO   H2328586  20.764  14.792   9.115
  244ETHO    O128587  20.798  14.608   9.008
  244ETHO    C128588  20.925  14.643   8.954
  244ETHO   H1128589  20.998  14.634   9.037
  244ETHO   H1328590  20.912  14.748   8.919
  244ETHO    C228591  20.960  14.543   8.847
  244ETHO   H2128592  20.925  14.443   8.882
  244ETHO   H2328593  21.071  14.539   8.839
  245ETHO    O128594  20.915  14.575   8.726
  245ETHO    C128595  20.959  14.487   8.617
  245ETHO   H1128596  21.068  14.502   8.601
  245ETHO   H1328597  20.950  14.382   8.650
  245ETHO    C228598  20.883  14.508   8.480
  245ETHO   H2128599  20.774  14.511   8.500
  245ETHO   H2328600  20.895  14.427   8.405
  246ETHO    O128601  20.929  14.625   8.416
  246ETHO    C128602  20.878  14.633   8.285
  246ETHO   H1128603  20.767  14.645   8.280
  246ETHO   H1328604  20.915  14.547   8.226
  246ETHO    C228605  20.934  14.758   8.212
  246ETHO   H2128606  20.888  14.761   8.111
  246ETHO   H2328607  21.044  14.750   8.198
  247ETHO    O128608  20.902  14.876   8.283
  247ETHO    C128609  20.997  14.971   8.244
  247ETHO   H1128610  21.098  14.936   8.274
  247ETHO   H1328611  21.006  14.973   8.133
  247ETHO    C228612  20.949  15.113   8.296
  247ETHO   H2128613  20.949  15.116   8.407
  247ETHO   H2328614  21.008  15.196   8.253
  248ETHO    O128615  20.814  15.136   8.246
  248ETHO    C128616  20.763  15.255   8.303
  248ETHO   H1128617  20.780  15.258   8.412
  248ETHO   H1328618  20.810  15.339   8.247
  248ETHO    C228619  20.612  15.279   8.299
  248ETHO   H2128620  20.603  15.376   8.352
  248ETHO   H2328621  20.568  15.201   8.365
  249ETHO    O128622  20.551  15.298   8.170
  249ETHO    C128623  20.440  15.397   8.186
  249ETHO   H1128624  20.488  15.496   8.200
  249ETHO   H1328625  20.396  15.412   8.086
  249ETHO    C228626  20.324  15.377   8.288
  249ETHO   H2128627  20.270  15.471   8.315
  249ETHO   H2328628  20.373  15.344   8.382
  250ETHO    O128629  20.227  15.285   8.233
  250ETHO    C128630  20.120  15.257   8.329
  250ETHO   H1128631  20.157  15.254   8.434
  250ETHO   H1328632  20.048  15.342   8.330
  250ETHO    C228633  20.044  15.131   8.294
  250ETHO   H2128634  20.039  15.133   8.183
  250ETHO   H2328635  19.943  15.127   8.340
  251ETHO    O128636  20.104  15.017   8.345
  251ETHO    C128637  20.042  14.901   8.300
  251ETHO   H1128638  20.076  14.892   8.195
  251ETHO   H1328639  19.931  14.900   8.305
  251ETHO    C228640  20.111  14.784   8.379
  251ETHO   H2128641  20.222  14.789   8.377
  251ETHO   H2328642  20.076  14.689   8.333
  252ETHO    O128643  20.070  14.778   8.516
  252ETHO    C128644  20.159  14.704   8.596
  252ETHO   H1128645  20.178  14.609   8.543
  252ETHO   H1328646  20.253  14.762   8.609
  252ETHO    C228647  20.097  14.668   8.736
  252ETHO   H2128648  20.072  14.766   8.783
  252ETHO   H2328649  20.179  14.627   8.798
  253ETHO    O128650  19.992  14.572   8.729
  253ETHO    C128651  19.976  14.501   8.850
  253ETHO   H1128652  19.952  14.577   8.928
  253ETHO   H1328653  20.070  14.450   8.880
  253ETHO    C228654  19.860  14.401   8.868
  253ETHO   H2128655  19.861  14.355   8.970
  253ETHO   H2328656  19.848  14.323   8.790
  254ETHO    O128657  19.733  14.479   8.858
  254ETHO    C128658  19.620  14.401   8.873
  254ETHO   H1128659  19.543  14.454   8.813
  254ETHO   H1328660  19.630  14.297   8.834
  254ETHO    C228661  19.568  14.400   9.014
  254ETHO   H2128662  19.657  14.370   9.074
  254ETHO   H2328663  19.484  14.327   9.015
  255ETHO    O128664  19.508  14.520   9.068
  255ETHO    C128665  19.475  14.499   9.207
  255ETHO   H1128666  19.512  14.578   9.275
  255ETHO   H1328667  19.530  14.410   9.246
  255ETHO    C228668  19.329  14.485   9.221
  255ETHO   H2128669  19.281  14.582   9.196
  255ETHO   H2328670  19.289  14.468   9.323
  256ETHO    O128671  19.276  14.385   9.138
  256ETHO    C128672  19.138  14.399   9.096
  256ETHO   H1128673  19.072  14.392   9.186
  256ETHO   H1328674  19.123  14.494   9.041
  256ETHO    C228675  19.104  14.276   9.002
  256ETHO   H2128676  19.147  14.285   8.900
  256ETHO   H2328677  18.993  14.271   8.995
  257ETHO    O128678  19.164  14.162   9.065
  257ETHO    C128679  19.153  14.040   8.989
  257ETHO   H1128680  19.201  14.058   8.890
  257ETHO   H1328681  19.048  14.009   8.969
  257ETHO    C228682  19.226  13.915   9.061
  257ETHO   H2128683  19.217  13.816   9.012
  257ETHO   H2328684  19.168  13.909   9.155
  258ETHO    O128685  19.360  13.940   9.086
  258ETHO    C128686  19.425  13.829   9.146
  258ETHO   H1128687  19.386  13.825   9.250
  258ETHO   H1328688  19.417  13.731   9.096
  258ETHO    C228689  19.575  13.865   9.167
  258ETHO   H2128690  19.616  13.814   9.256
  258ETHO   H2328691  19.597  13.970   9.196
  259ETHO    O128692  19.659  13.823   9.062
  259ETHO    C128693  19.652  13.912   8.955
  259ETHO   H1128694  19.572  13.863   8.895
  259ETHO   H1328695  19.633  14.018   8.982
  259ETHO    C228696  19.776  13.922   8.877
  259ETHO   H2128697  19.765  13.979   8.782
  259ETHO   H2328698  19.818  13.823   8.849
  260ETHO    O128699  19.871  13.991   8.960
  260ETHO    C128700  19.990  13.997   8.891
  260ETHO   H1128701  20.011  13.893   8.859
  260ETHO   H1328702  19.988  14.058   8.798
  260ETHO    C228703  20.109  14.058   8.964
  260ETHO   H2128704  20.204  14.023   8.917
  260ETHO   H2328705  20.120  14.033   9.072
  261ETHO    O128706  20.103  14.199   8.948
  261ETHO    C128707  20.194  14.269   9.041
  261ETHO   H1128708  20.280  14.202   9.060
  261ETHO   H1328709  20.237  14.357   8.987
  261ETHO    C228710  20.125  14.317   9.178
  261ETHO   H2128711  20.205  14.332   9.253
  261ETHO   H2328712  20.070  14.235   9.228
  262ETHO    O128713  20.065  14.441   9.157
  262ETHO    C128714  19.977  14.486   9.262
  262ETHO   H1128715  20.027  14.507   9.359
  262ETHO   H1328716  19.903  14.408   9.293
  262ETHO    C228717  19.900  14.603   9.212
  262ETHO   H2128718  19.816  14.572   9.146
  262ETHO   H2328719  19.968  14.669   9.155
  263ETHO    O128720  19.849  14.683   9.324
  263ETHO    C128721  19.775  14.794   9.286
  263ETHO   H1128722  19.693  14.800   9.361
  263ETHO   H1328723  19.731  14.769   9.187
  263ETHO    C228724  19.862  14.921   9.286
  263ETHO   H2128725  19.901  14.924   9.389
  263ETHO   H2328726  19.800  15.008   9.255
  264ETHO    O128727  19.973  14.895   9.196
  264ETHO    C128728  20.094  14.950   9.244
  264ETHO   H1128729  20.105  14.917   9.349
  264ETHO   H1328730  20.093  15.061   9.243
  264ETHO    C228731  20.222  14.901   9.166
  264ETHO   H2128732  20.210  14.791   9.164
  264ETHO   H2328733  20.313  14.928   9.224
  265ETHO    O128734  20.241  14.952   9.027
  265ETHO    C128735  20.339  14.885   8.956
  265ETHO   H1128736  20.362  14.789   9.008
  265ETHO   H1328737  20.281  14.853   8.867
  265ETHO    C228738  20.456  14.967   8.912
  265ETHO   H2128739  20.407  15.054   8.863
  265ETHO   H2328740  20.510  14.896   8.846
  265ETHO    OZ28741  20.537  14.995   9.027
  265ETHO   HZ128742  20.491  15.060   9.080
    1ETHO    O128743   7.713  12.201  19.314
    1ETHO   HO128744   7.704  12.105  19.316
    1ETHO    C128745   7.791  12.235  19.429
    1ETHO   H1128746   7.888  12.182  19.425
    1ETHO   H1328747   7.738  12.186  19.513
    1ETHO    C228748   7.803  12.388  19.438
    1ETHO   H2128749   7.864  12.417  19.350
    1ETHO   H2328750   7.856  12.415  19.532
    2ETHO    O128751   7.689  12.472  19.435
    2ETHO    C128752   7.608  12.453  19.550
    2ETHO   H1128753   7.565  12.351  19.540
    2ETHO   H1328754   7.678  12.471  19.635
    2ETHO    C228755   7.497  12.562  19.554
    2ETHO   H2128756   7.441  12.530  19.644
    2ETHO   H2328757   7.419  12.562  19.475
    3ETHO    O128758   7.559  12.691  19.588
    3ETHO    C128759   7.464  12.796  19.592
    3ETHO   H1128760   7.389  12.768  19.668
    3ETHO   H1328761   7.408  12.807  19.496
    3ETHO    C228762   7.530  12.937  19.607
    3ETHO   H2128763   7.453  13.017  19.608
    3ETHO   H2328764   7.608  12.961  19.532
    4ETHO    O128765   7.601  12.931  19.728
    4ETHO    C128766   7.592  13.052  19.800
    4ETHO   H1128767   7.639  13.136  19.744
    4ETHO   H1328768   7.485  13.079  19.815
    4ETHO    C228769   7.664  13.040  19.930
    4ETHO   H2128770   7.614  12.964  19.994
    4ETHO   H2328771   7.638  13.134  19.984
    5ETHO    O128772   7.805  13.033  19.908
    5ETHO    C128773   7.874  13.016  20.033
    5ETHO   H1128774   7.976  13.059  20.024
    5ETHO   H1328775   7.827  13.096  20.094
    5ETHO    C228776   7.877  12.867  20.088
    5ETHO   H2128777   7.951  12.868  20.171
    5ETHO   H2328778   7.921  12.799  20.012
    6ETHO    O128779   7.751  12.814  20.133
    6ETHO    C128780   7.747  12.673  20.144
    6ETHO   H1128781   7.850  12.633  20.136
    6ETHO   H1328782   7.699  12.648  20.241
    6ETHO    C228783   7.668  12.631  20.025
    6ETHO   H2128784   7.709  12.532  19.996
    6ETHO   H2328785   7.680  12.699  19.938
    7ETHO    O128786   7.531  12.629  20.053
    7ETHO    C128787   7.455  12.575  19.949
    7ETHO   H1128788   7.456  12.641  19.860
    7ETHO   H1328789   7.504  12.478  19.926
    7ETHO    C228790   7.305  12.554  19.991
    7ETHO   H2128791   7.260  12.655  19.974
    7ETHO   H2328792   7.281  12.519  20.093
    8ETHO    O128793   7.261  12.455  19.896
    8ETHO    C128794   7.122  12.439  19.896
    8ETHO   H1128795   7.087  12.520  19.829
    8ETHO   H1328796   7.082  12.441  20.000
    8ETHO    C228797   7.083  12.306  19.839
    8ETHO   H2128798   6.976  12.284  19.857
    8ETHO   H2328799   7.142  12.228  19.891
    9ETHO    O128800   7.096  12.313  19.694
    9ETHO    C128801   7.066  12.186  19.633
    9ETHO   H1128802   7.109  12.110  19.702
    9ETHO   H1328803   6.955  12.180  19.632
    9ETHO    C228804   7.135  12.171  19.501
    9ETHO   H2128805   7.115  12.258  19.435
    9ETHO   H2328806   7.099  12.076  19.454
   10ETHO    O128807   7.277  12.163  19.509
   10ETHO    C128808   7.353  12.120  19.392
   10ETHO   H1128809   7.462  12.133  19.413
   10ETHO   H1328810   7.323  12.187  19.309
   10ETHO    C228811   7.336  11.979  19.340
   10ETHO   H2128812   7.243  11.969  19.282
   10ETHO   H2328813   7.326  11.899  19.417
   11ETHO    O128814   7.440  11.950  19.249
   11ETHO    C128815   7.554  11.898  19.320
   11ETHO   H1128816   7.599  11.982  19.377
   11ETHO   H1328817   7.523  11.821  19.393
   11ETHO    C228818   7.655  11.844  19.214
   11ETHO   H2128819   7.724  11.768  19.258
   11ETHO   H2328820   7.597  11.799  19.131
   12ETHO    O128821   7.725  11.951  19.157
   12ETHO    C128822   7.825  11.904  19.062
   12ETHO   H1128823   7.775  11.893  18.964
   12ETHO   H1328824   7.868  11.809  19.102
   12ETHO    C228825   7.939  11.999  19.041
   12ETHO   H2128826   7.896  12.100  19.022
   12ETHO   H2328827   7.991  11.969  18.948
   13ETHO    O128828   8.042  12.005  19.139
   13ETHO    C128829   8.129  12.109  19.103
   13ETHO   H1128830   8.145  12.097  18.993
   13ETHO   H1328831   8.085  12.208  19.128
   13ETHO    C228832   8.262  12.105  19.179
   13ETHO   H2128833   8.266  12.116  19.289
   13ETHO   H2328834   8.327  12.179  19.128
   14ETHO    O128835   8.319  11.982  19.152
   14ETHO    C128836   8.446  11.963  19.205
   14ETHO   H1128837   8.509  12.054  19.200
   14ETHO   H1328838   8.492  11.889  19.135
   14ETHO    C228839   8.454  11.905  19.346
   14ETHO   H2128840   8.398  11.809  19.340
   14ETHO   H2328841   8.415  11.981  19.417
   15ETHO    O128842   8.582  11.869  19.387
   15ETHO    C128843   8.594  11.839  19.523
   15ETHO   H1128844   8.539  11.915  19.584
   15ETHO   H1328845   8.548  11.740  19.542
   15ETHO    C228846   8.741  11.841  19.556
   15ETHO   H2128847   8.791  11.939  19.541
   15ETHO   H2328848   8.738  11.813  19.663
   16ETHO    O128849   8.811  11.751  19.479
   16ETHO    C128850   8.828  11.627  19.544
   16ETHO   H1128851   8.894  11.629  19.633
   16ETHO   H1328852   8.733  11.588  19.586
   16ETHO    C228853   8.886  11.516  19.450
   16ETHO   H2128854   8.816  11.510  19.365
   16ETHO   H2328855   8.875  11.423  19.509
   17ETHO    O128856   9.019  11.533  19.407
   17ETHO    C128857   9.061  11.436  19.313
   17ETHO   H1128858   9.068  11.339  19.365
   17ETHO   H1328859   8.970  11.425  19.249
   17ETHO    C228860   9.191  11.478  19.243
   17ETHO   H2128861   9.230  11.382  19.203
   17ETHO   H2328862   9.265  11.521  19.314
   18ETHO    O128863   9.181  11.572  19.140
   18ETHO    C128864   9.313  11.586  19.085
   18ETHO   H1128865   9.370  11.664  19.139
   18ETHO   H1328866   9.380  11.497  19.086
   18ETHO    C228867   9.312  11.632  18.937
   18ETHO   H2128868   9.417  11.658  18.912
   18ETHO   H2328869   9.256  11.727  18.946
   19ETHO    O128870   9.255  11.533  18.850
   19ETHO    C128871   9.339  11.519  18.734
   19ETHO   H1128872   9.304  11.434  18.671
   19ETHO   H1328873   9.445  11.502  18.761
   19ETHO    C228874   9.335  11.645  18.647
   19ETHO   H2128875   9.417  11.628  18.573
   19ETHO   H2328876   9.373  11.731  18.707
   20ETHO    O128877   9.209  11.678  18.587
   20ETHO    C128878   9.202  11.813  18.553
   20ETHO   H1128879   9.182  11.877  18.642
   20ETHO   H1328880   9.302  11.831  18.507
   20ETHO    C228881   9.085  11.848  18.460
   20ETHO   H2128882   9.072  11.759  18.396
   20ETHO   H2328883   9.123  11.927  18.392
   21ETHO    O128884   8.959  11.880  18.523
   21ETHO    C128885   8.866  11.919  18.425
   21ETHO   H1128886   8.833  11.819  18.390
   21ETHO   H1328887   8.919  11.979  18.348
   21ETHO    C228888   8.754  12.000  18.496
   21ETHO   H2128889   8.717  11.944  18.585
   21ETHO   H2328890   8.672  12.031  18.428
   22ETHO    O128891   8.820  12.121  18.540
   22ETHO    C128892   8.736  12.218  18.587
   22ETHO   H1128893   8.697  12.291  18.513
   22ETHO   H1328894   8.650  12.163  18.632
   22ETHO    C228895   8.800  12.301  18.695
   22ETHO   H2128896   8.878  12.361  18.644
   22ETHO   H2328897   8.715  12.358  18.737
   23ETHO    O128898   8.858  12.234  18.817
   23ETHO    C128899   8.899  12.328  18.916
   23ETHO   H1128900   8.829  12.414  18.909
   23ETHO   H1328901   9.001  12.361  18.890
   23ETHO    C228902   8.906  12.280  19.057
   23ETHO   H2128903   8.805  12.256  19.095
   23ETHO   H2328904   8.944  12.368  19.114
   24ETHO    O128905   8.992  12.169  19.068
   24ETHO    C128906   8.951  12.089  19.173
   24ETHO   H1128907   8.854  12.040  19.148
   24ETHO   H1328908   9.022  12.012  19.207
   24ETHO    C228909   8.913  12.162  19.306
   24ETHO   H2128910   8.982  12.247  19.325
   24ETHO   H2328911   8.940  12.105  19.398
   25ETHO    O128912   8.777  12.196  19.316
   25ETHO    C128913   8.730  12.226  19.449
   25ETHO   H1128914   8.792  12.311  19.483
   25ETHO   H1328915   8.752  12.134  19.508
   25ETHO    C228916   8.576  12.245  19.458
   25ETHO   H2128917   8.551  12.239  19.566
   25ETHO   H2328918   8.519  12.183  19.386
   26ETHO    O128919   8.547  12.377  19.429
   26ETHO    C128920   8.552  12.417  19.290
   26ETHO   H1128921   8.655  12.419  19.248
   26ETHO   H1328922   8.504  12.344  19.222
   26ETHO    C228923   8.488  12.560  19.289
   26ETHO   H2128924   8.394  12.554  19.348
   26ETHO   H2328925   8.473  12.581  19.181
   27ETHO    O128926   8.576  12.654  19.344
   27ETHO    C128927   8.572  12.783  19.286
   27ETHO   H1128928   8.468  12.820  19.302
   27ETHO   H1328929   8.589  12.762  19.178
   27ETHO    C228930   8.659  12.892  19.340
   27ETHO   H2128931   8.657  12.868  19.448
   27ETHO   H2328932   8.621  12.992  19.308
   28ETHO    O128933   8.798  12.886  19.295
   28ETHO    C128934   8.882  12.973  19.368
   28ETHO   H1128935   8.862  13.080  19.348
   28ETHO   H1328936   8.872  12.959  19.478
   28ETHO    C228937   9.031  12.964  19.330
   28ETHO   H2128938   9.054  12.857  19.314
   28ETHO   H2328939   9.101  13.012  19.403
   29ETHO    O128940   9.039  13.035  19.207
   29ETHO    C128941   9.171  13.016  19.144
   29ETHO   H1128942   9.261  13.046  19.202
   29ETHO   H1328943   9.169  13.094  19.064
   29ETHO    C228944   9.195  12.877  19.076
   29ETHO   H2128945   9.268  12.873  18.992
   29ETHO   H2328946   9.100  12.834  19.038
   30ETHO    O128947   9.252  12.794  19.175
   30ETHO    C128948   9.200  12.664  19.174
   30ETHO   H1128949   9.093  12.664  19.204
   30ETHO   H1328950   9.213  12.612  19.077
   30ETHO    C228951   9.271  12.565  19.266
   30ETHO   H2128952   9.204  12.477  19.283
   30ETHO   H2328953   9.276  12.620  19.362
   31ETHO    O128954   9.398  12.530  19.205
   31ETHO    C128955   9.503  12.579  19.291
   31ETHO   H1128956   9.501  12.690  19.287
   31ETHO   H1328957   9.475  12.548  19.394
   31ETHO    C228958   9.644  12.520  19.270
   31ETHO   H2128959   9.635  12.410  19.251
   31ETHO   H2328960   9.697  12.532  19.366
   32ETHO    O128961   9.712  12.582  19.165
   32ETHO    C128962   9.825  12.504  19.142
   32ETHO   H1128963   9.864  12.453  19.232
   32ETHO   H1328964   9.786  12.429  19.070
   32ETHO    C228965   9.939  12.571  19.063
   32ETHO   H2128966   9.889  12.613  18.974
   32ETHO   H2328967  10.001  12.481  19.041
   33ETHO    O128968  10.007  12.673  19.136
   33ETHO    C128969  10.123  12.728  19.070
   33ETHO   H1128970  10.188  12.646  19.031
   33ETHO   H1328971  10.087  12.781  18.979
   33ETHO    C228972  10.202  12.818  19.169
   33ETHO   H2128973  10.303  12.831  19.125
   33ETHO   H2328974  10.196  12.762  19.265
   34ETHO    O128975  10.154  12.948  19.185
   34ETHO    C128976  10.197  13.002  19.309
   34ETHO   H1128977  10.299  12.967  19.335
   34ETHO   H1328978  10.130  12.958  19.386
   34ETHO    C228979  10.192  13.158  19.303
   34ETHO   H2128980  10.231  13.210  19.213
   34ETHO   H2328981  10.253  13.193  19.389
   35ETHO    O128982  10.057  13.192  19.326
   35ETHO    C128983   9.991  13.213  19.197
   35ETHO   H1128984  10.053  13.271  19.126
   35ETHO   H1328985   9.967  13.115  19.149
   35ETHO    C228986   9.854  13.293  19.207
   35ETHO   H2128987   9.781  13.229  19.262
   35ETHO   H2328988   9.822  13.308  19.102
   36ETHO    O128989   9.875  13.420  19.268
   36ETHO    C128990   9.764  13.511  19.233
   36ETHO   H1128991   9.668  13.453  19.230
   36ETHO   H1328992   9.780  13.549  19.130
   36ETHO    C228993   9.736  13.620  19.336
   36ETHO   H2128994   9.654  13.688  19.303
   36ETHO   H2328995   9.834  13.672  19.342
   37ETHO    O128996   9.694  13.580  19.464
   37ETHO    C128997   9.573  13.516  19.458
   37ETHO   H1128998   9.566  13.416  19.408
   37ETHO   H1328999   9.555  13.488  19.564
   37ETHO    C229000   9.448  13.600  19.412
   37ETHO   H2129001   9.449  13.704  19.451
   37ETHO   H2329002   9.366  13.552  19.470
   38ETHO    O129003   9.415  13.595  19.268
   38ETHO    C129004   9.281  13.633  19.245
   38ETHO   H1129005   9.274  13.645  19.135
   38ETHO   H1329006   9.263  13.734  19.289
   38ETHO    C229007   9.178  13.517  19.271
   38ETHO   H2129008   9.238  13.426  19.250
   38ETHO   H2329009   9.092  13.523  19.201
   39ETHO    O129010   9.135  13.503  19.402
   39ETHO    C129011   9.095  13.367  19.446
   39ETHO   H1129012   8.992  13.348  19.409
   39ETHO   H1329013   9.159  13.288  19.400
   39ETHO    C229014   9.098  13.334  19.594
   39ETHO   H2129015   9.063  13.230  19.612
   39ETHO   H2329016   9.040  13.409  19.651
   40ETHO    O129017   9.231  13.335  19.647
   40ETHO    C129018   9.234  13.386  19.778
   40ETHO   H1129019   9.145  13.351  19.834
   40ETHO   H1329020   9.229  13.497  19.769
   40ETHO    C229021   9.361  13.337  19.844
   40ETHO   H2129022   9.374  13.410  19.927
   40ETHO   H2329023   9.456  13.352  19.788
   41ETHO    O129024   9.360  13.206  19.901
   41ETHO    C129025   9.463  13.182  19.999
   41ETHO   H1129026   9.561  13.167  19.951
   41ETHO   H1329027   9.467  13.264  20.074
   41ETHO    C229028   9.454  13.054  20.090
   41ETHO   H2129029   9.348  13.021  20.090
   41ETHO   H2329030   9.477  13.091  20.192
   42ETHO    O129031   9.553  12.958  20.052
   42ETHO    C129032   9.533  12.839  20.133
   42ETHO   H1129033   9.562  12.868  20.237
   42ETHO   H1329034   9.425  12.816  20.122
   42ETHO    C229035   9.621  12.723  20.078
   42ETHO   H2129036   9.659  12.669  20.167
   42ETHO   H2329037   9.704  12.765  20.018
   43ETHO    O129038   9.544  12.637  20.007
   43ETHO    C129039   9.614  12.519  19.981
   43ETHO   H1129040   9.700  12.542  19.915
   43ETHO   H1329041   9.655  12.474  20.074
   43ETHO    C229042   9.529  12.413  19.907
   43ETHO   H2129043   9.595  12.325  19.891
   43ETHO   H2329044   9.485  12.467  19.821
   44ETHO    O129045   9.427  12.352  19.987
   44ETHO    C129046   9.348  12.268  19.905
   44ETHO   H1129047   9.295  12.314  19.819
   44ETHO   H1329048   9.417  12.192  19.863
   44ETHO    C229049   9.237  12.194  19.976
   44ETHO   H2129050   9.277  12.148  20.069
   44ETHO   H2329051   9.185  12.123  19.909
   45ETHO    O129052   9.133  12.285  20.018
   45ETHO    C129053   9.040  12.230  20.111
   45ETHO   H1129054   9.095  12.197  20.202
   45ETHO   H1329055   8.999  12.147  20.050
   45ETHO    C229056   8.931  12.331  20.145
   45ETHO   H2129057   8.857  12.283  20.213
   45ETHO   H2329058   8.874  12.363  20.055
   46ETHO    O129059   8.997  12.437  20.211
   46ETHO    C129060   8.906  12.512  20.293
   46ETHO   H1129061   8.821  12.554  20.235
   46ETHO   H1329062   8.861  12.439  20.364
   46ETHO    C229063   8.977  12.625  20.371
   46ETHO   H2129064   9.065  12.593  20.431
   46ETHO   H2329065   8.913  12.663  20.453
   47ETHO    O129066   9.003  12.739  20.289
   47ETHO    C129067   9.146  12.776  20.278
   47ETHO   H1129068   9.157  12.841  20.189
   47ETHO   H1329069   9.201  12.680  20.271
   47ETHO    C229070   9.199  12.847  20.400
   47ETHO   H2129071   9.148  12.815  20.493
   47ETHO   H2329072   9.185  12.957  20.397
   48ETHO    O129073   9.342  12.822  20.421
   48ETHO    C129074   9.399  12.906  20.526
   48ETHO   H1129075   9.509  12.892  20.516
   48ETHO   H1329076   9.371  13.010  20.499
   48ETHO    C229077   9.345  12.871  20.668
   48ETHO   H2129078   9.341  12.760  20.673
   48ETHO   H2329079   9.409  12.908  20.750
   49ETHO    O129080   9.212  12.917  20.692
   49ETHO    C129081   9.194  12.934  20.828
   49ETHO   H1129082   9.279  12.987  20.876
   49ETHO   H1329083   9.191  12.831  20.869
   49ETHO    C229084   9.060  13.002  20.857
   49ETHO   H2129085   9.054  13.005  20.967
   49ETHO   H2329086   8.979  12.935  20.822
   50ETHO    O129087   9.032  13.124  20.793
   50ETHO    C129088   9.069  13.244  20.865
   50ETHO   H1129089   9.049  13.227  20.973
   50ETHO   H1329090   9.178  13.258  20.851
   50ETHO    C229091   8.999  13.373  20.814
   50ETHO   H2129092   8.890  13.362  20.833
   50ETHO   H2329093   9.019  13.384  20.705
   51ETHO    O129094   9.052  13.485  20.886
   51ETHO    C129095   8.979  13.506  21.007
   51ETHO   H1129096   9.049  13.548  21.082
   51ETHO   H1329097   8.936  13.412  21.046
   51ETHO    C229098   8.874  13.617  20.978
   51ETHO   H2129099   8.870  13.649  20.871
   51ETHO   H2329100   8.895  13.708  21.037
   52ETHO    O129101   8.744  13.576  21.017
   52ETHO    C129102   8.661  13.683  21.072
   52ETHO   H1129103   8.689  13.704  21.177
   52ETHO   H1329104   8.678  13.773  21.008
   52ETHO    C229105   8.510  13.650  21.071
   52ETHO   H2129106   8.497  13.622  20.964
   52ETHO   H2329107   8.454  13.739  21.105
   53ETHO    O129108   8.465  13.547  21.157
   53ETHO    C129109   8.327  13.553  21.180
   53ETHO   H1129110   8.300  13.644  21.237
   53ETHO   H1329111   8.265  13.549  21.088
   53ETHO    C229112   8.301  13.430  21.266
   53ETHO   H2129113   8.350  13.344  21.216
   53ETHO   H2329114   8.191  13.413  21.265
   54ETHO    O129115   8.343  13.437  21.403
   54ETHO    C129116   8.340  13.308  21.462
   54ETHO   H1129117   8.234  13.275  21.468
   54ETHO   H1329118   8.399  13.236  21.401
   54ETHO    C229119   8.402  13.298  21.606
   54ETHO   H2129120   8.505  13.338  21.610
   54ETHO   H2329121   8.410  13.188  21.624
   55ETHO    O129122   8.339  13.365  21.706
   55ETHO    C129123   8.368  13.291  21.824
   55ETHO   H1129124   8.323  13.191  21.807
   55ETHO   H1329125   8.478  13.283  21.841
   55ETHO    C229126   8.314  13.366  21.950
   55ETHO   H2129127   8.349  13.472  21.953
   55ETHO   H2329128   8.203  13.364  21.947
   56ETHO    O129129   8.349  13.312  22.082
   56ETHO    C129130   8.299  13.190  22.116
   56ETHO   H1129131   8.329  13.120  22.035
   56ETHO   H1329132   8.188  13.185  22.111
   56ETHO    C229133   8.345  13.148  22.254
   56ETHO   H2129134   8.271  13.075  22.293
   56ETHO   H2329135   8.338  13.233  22.324
   57ETHO    O129136   8.476  13.088  22.248
   57ETHO    C129137   8.540  13.071  22.377
   57ETHO   H1129138   8.483  13.009  22.450
   57ETHO   H1329139   8.625  13.010  22.342
   57ETHO    C229140   8.577  13.203  22.442
   57ETHO   H2129141   8.617  13.271  22.363
   57ETHO   H2329142   8.662  13.192  22.512
   58ETHO    O129143   8.464  13.273  22.502
   58ETHO    C129144   8.507  13.400  22.551
   58ETHO   H1129145   8.526  13.462  22.461
   58ETHO   H1329146   8.602  13.385  22.606
   58ETHO    C229147   8.402  13.472  22.635
   58ETHO   H2129148   8.304  13.483  22.582
   58ETHO   H2329149   8.429  13.575  22.665
   59ETHO    O129150   8.376  13.390  22.753
   59ETHO    C129151   8.275  13.440  22.825
   59ETHO   H1129152   8.303  13.538  22.869
   59ETHO   H1329153   8.188  13.461  22.759
   59ETHO    C229154   8.228  13.336  22.922
   59ETHO   H2129155   8.170  13.386  23.003
   59ETHO   H2329156   8.309  13.279  22.972
   60ETHO    O129157   8.151  13.237  22.853
   60ETHO    C129158   8.011  13.256  22.853
   60ETHO   H1129159   7.987  13.364  22.857
   60ETHO   H1329160   7.961  13.211  22.942
   60ETHO    C229161   7.939  13.188  22.733
   60ETHO   H2129162   7.970  13.081  22.732
   60ETHO   H2329163   7.984  13.237  22.644
   61ETHO    O129164   7.801  13.218  22.727
   61ETHO    C129165   7.735  13.146  22.621
   61ETHO   H1129166   7.753  13.189  22.520
   61ETHO   H1329167   7.756  13.038  22.630
   61ETHO    C229168   7.583  13.151  22.637
   61ETHO   H2129169   7.560  13.112  22.738
   61ETHO   H2329170   7.542  13.079  22.564
   62ETHO    O129171   7.520  13.276  22.621
   62ETHO    C129172   7.458  13.297  22.492
   62ETHO   H1129173   7.361  13.243  22.489
   62ETHO   H1329174   7.534  13.266  22.417
   62ETHO    C229175   7.438  13.449  22.475
   62ETHO   H2129176   7.385  13.479  22.569
   62ETHO   H2329177   7.382  13.477  22.384
   63ETHO    O129178   7.569  13.510  22.469
   63ETHO    C129179   7.557  13.651  22.479
   63ETHO   H1129180   7.510  13.690  22.386
   63ETHO   H1329181   7.491  13.677  22.564
   63ETHO    C229182   7.685  13.722  22.498
   63ETHO   H2129183   7.741  13.689  22.589
   63ETHO   H2329184   7.657  13.828  22.514
   64ETHO    O129185   7.764  13.719  22.378
   64ETHO    C129186   7.890  13.646  22.399
   64ETHO   H1129187   7.872  13.559  22.465
   64ETHO   H1329188   7.948  13.720  22.458
   64ETHO    C229189   7.967  13.615  22.266
   64ETHO   H2129190   8.074  13.597  22.288
   64ETHO   H2329191   7.972  13.703  22.198
   65ETHO    O129192   7.915  13.508  22.182
   65ETHO    C129193   7.995  13.391  22.181
   65ETHO   H1129194   8.097  13.424  22.152
   65ETHO   H1329195   7.990  13.353  22.285
   65ETHO    C229196   7.937  13.275  22.092
   65ETHO   H2129197   7.828  13.255  22.103
   65ETHO   H2329198   7.980  13.178  22.124
   66ETHO    O129199   7.967  13.304  21.956
   66ETHO    C129200   7.930  13.196  21.869
   66ETHO   H1129201   7.826  13.158  21.878
   66ETHO   H1329202   7.988  13.105  21.897
   66ETHO    C229203   7.962  13.237  21.724
   66ETHO   H2129204   7.955  13.145  21.663
   66ETHO   H2329205   8.062  13.285  21.727
   67ETHO    O129206   7.871  13.341  21.673
   67ETHO    C129207   7.886  13.360  21.532
   67ETHO   H1129208   7.993  13.373  21.508
   67ETHO   H1329209   7.855  13.268  21.478
   67ETHO    C229210   7.810  13.484  21.478
   67ETHO   H2129211   7.708  13.475  21.522
   67ETHO   H2329212   7.792  13.490  21.369
   68ETHO    O129213   7.868  13.601  21.525
   68ETHO    C129214   7.782  13.714  21.504
   68ETHO   H1129215   7.774  13.714  21.393
   68ETHO   H1329216   7.687  13.695  21.558
   68ETHO    C229217   7.833  13.851  21.547
   68ETHO   H2129218   7.891  13.857  21.642
   68ETHO   H2329219   7.740  13.910  21.561
   69ETHO    O129220   7.918  13.912  21.456
   69ETHO    C129221   7.972  14.037  21.508
   69ETHO   H1129222   7.887  14.104  21.532
   69ETHO   H1329223   8.035  14.022  21.598
   69ETHO    C229224   8.059  14.116  21.405
   69ETHO   H2129225   8.138  14.050  21.364
   69ETHO   H2329226   8.109  14.206  21.446
   70ETHO    O129227   7.989  14.153  21.292
   70ETHO    C129228   8.076  14.168  21.181
   70ETHO   H1129229   8.159  14.229  21.222
   70ETHO   H1329230   8.105  14.064  21.155
   70ETHO    C229231   8.004  14.241  21.065
   70ETHO   H2129232   7.934  14.168  21.018
   70ETHO   H2329233   8.084  14.250  20.988
   71ETHO    O129234   7.951  14.369  21.087
   71ETHO    C129235   7.906  14.429  20.966
   71ETHO   H1129236   7.814  14.376  20.935
   71ETHO   H1329237   7.974  14.407  20.881
   71ETHO    C229238   7.906  14.578  20.971
   71ETHO   H2129239   7.877  14.616  20.871
   71ETHO   H2329240   8.011  14.608  20.986
   72ETHO    O129241   7.812  14.622  21.079
   72ETHO    C129242   7.771  14.755  21.058
   72ETHO   H1129243   7.861  14.819  21.066
   72ETHO   H1329244   7.738  14.771  20.954
   72ETHO    C229245   7.653  14.802  21.148
   72ETHO   H2129246   7.635  14.907  21.116
   72ETHO   H2329247   7.682  14.796  21.256
   73ETHO    O129248   7.535  14.737  21.123
   73ETHO    C129249   7.515  14.628  21.220
   73ETHO   H1129250   7.454  14.683  21.295
   73ETHO   H1329251   7.608  14.596  21.273
   73ETHO    C229252   7.437  14.505  21.162
   73ETHO   H2129253   7.497  14.418  21.129
   73ETHO   H2329254   7.381  14.549  21.076
   74ETHO    O129255   7.346  14.447  21.260
   74ETHO    C129256   7.233  14.532  21.295
   74ETHO   H1129257   7.277  14.607  21.365
   74ETHO   H1329258   7.190  14.573  21.201
   74ETHO    C229259   7.127  14.456  21.375
   74ETHO   H2129260   7.053  14.538  21.378
   74ETHO   H2329261   7.153  14.437  21.481
   75ETHO    O129262   7.068  14.354  21.296
   75ETHO    C129263   6.955  14.297  21.365
   75ETHO   H1129264   6.882  14.374  21.395
   75ETHO   H1329265   6.987  14.247  21.459
   75ETHO    C229266   6.873  14.191  21.278
   75ETHO   H2129267   6.882  14.216  21.170
   75ETHO   H2329268   6.766  14.196  21.309
   76ETHO    O129269   6.915  14.055  21.288
   76ETHO    C129270   6.874  13.994  21.407
   76ETHO   H1129271   6.917  14.046  21.495
   76ETHO   H1329272   6.764  14.004  21.407
   76ETHO    C229273   6.901  13.838  21.397
   76ETHO   H2129274   6.862  13.793  21.303
   76ETHO   H2329275   6.851  13.796  21.487
   77ETHO    O129276   7.040  13.809  21.401
   77ETHO    C129277   7.084  13.673  21.386
   77ETHO   H1129278   7.056  13.629  21.288
   77ETHO   H1329279   7.043  13.616  21.472
   77ETHO    C229280   7.236  13.656  21.395
   77ETHO   H2129281   7.257  13.551  21.425
   77ETHO   H2329282   7.284  13.715  21.475
   78ETHO    O129283   7.294  13.685  21.264
   78ETHO    C129284   7.440  13.718  21.267
   78ETHO   H1129285   7.457  13.791  21.349
   78ETHO   H1329286   7.499  13.630  21.299
   78ETHO    C229287   7.480  13.782  21.134
   78ETHO   H2129288   7.573  13.841  21.148
   78ETHO   H2329289   7.399  13.851  21.102
   79ETHO    O129290   7.504  13.699  21.024
   79ETHO    C129291   7.518  13.769  20.904
   79ETHO   H1129292   7.426  13.820  20.867
   79ETHO   H1329293   7.599  13.843  20.922
   79ETHO    C229294   7.573  13.667  20.809
   79ETHO   H2129295   7.574  13.721  20.711
   79ETHO   H2329296   7.506  13.579  20.810
   80ETHO    O129297   7.710  13.625  20.842
   80ETHO    C129298   7.810  13.671  20.747
   80ETHO   H1129299   7.771  13.658  20.644
   80ETHO   H1329300   7.818  13.781  20.758
   80ETHO    C229301   7.943  13.609  20.771
   80ETHO   H2129302   7.928  13.499  20.769
   80ETHO   H2329303   7.976  13.628  20.875
   81ETHO    O129304   8.045  13.654  20.686
   81ETHO    C129305   8.044  13.587  20.557
   81ETHO   H1129306   8.085  13.485  20.567
   81ETHO   H1329307   7.941  13.569  20.519
   81ETHO    C229308   8.113  13.660  20.447
   81ETHO   H2129309   8.055  13.625  20.359
   81ETHO   H2329310   8.093  13.769  20.453
   82ETHO    O129311   8.252  13.635  20.429
   82ETHO    C129312   8.306  13.695  20.310
   82ETHO   H1129313   8.313  13.804  20.327
   82ETHO   H1329314   8.241  13.676  20.222
   82ETHO    C229315   8.451  13.648  20.287
   82ETHO   H2129316   8.502  13.628  20.383
   82ETHO   H2329317   8.506  13.727  20.231
   83ETHO    O129318   8.442  13.532  20.202
   83ETHO    C129319   8.561  13.513  20.127
   83ETHO   H1129320   8.650  13.538  20.189
   83ETHO   H1329321   8.562  13.405  20.102
   83ETHO    C229322   8.557  13.602  20.001
   83ETHO   H2129323   8.645  13.595  19.933
   83ETHO   H2329324   8.550  13.707  20.036
   84ETHO    O129325   8.438  13.572  19.923
   84ETHO    C129326   8.392  13.689  19.848
   84ETHO   H1129327   8.377  13.775  19.917
   84ETHO   H1329328   8.298  13.662  19.796
   84ETHO    C229329   8.490  13.718  19.727
   84ETHO   H2129330   8.591  13.725  19.771
   84ETHO   H2329331   8.456  13.805  19.667
   85ETHO    O129332   8.498  13.605  19.627
   85ETHO    C129333   8.381  13.589  19.548
   85ETHO   H1129334   8.292  13.551  19.604
   85ETHO   H1329335   8.355  13.675  19.483
   85ETHO    C229336   8.413  13.479  19.443
   85ETHO   H2129337   8.314  13.443  19.409
   85ETHO   H2329338   8.470  13.397  19.492
   86ETHO    O129339   8.485  13.521  19.329
   86ETHO    C129340   8.483  13.422  19.227
   86ETHO   H1129341   8.375  13.420  19.199
   86ETHO   H1329342   8.502  13.323  19.274
   86ETHO    C229343   8.588  13.439  19.115
   86ETHO   H2129344   8.583  13.539  19.066
   86ETHO   H2329345   8.575  13.360  19.037
   87ETHO    O129346   8.725  13.423  19.158
   87ETHO    C129347   8.825  13.404  19.065
   87ETHO   H1129348   8.912  13.378  19.129
   87ETHO   H1329349   8.795  13.321  18.998
   87ETHO    C229350   8.871  13.518  18.976
   87ETHO   H2129351   8.863  13.617  19.026
   87ETHO   H2329352   8.799  13.531  18.891
   88ETHO    O129353   9.002  13.503  18.927
   88ETHO    C129354   9.050  13.614  18.858
   88ETHO   H1129355   9.047  13.707  18.920
   88ETHO   H1329356   8.975  13.645  18.783
   88ETHO    C229357   9.189  13.599  18.784
   88ETHO   H2129358   9.271  13.546  18.836
   88ETHO   H2329359   9.214  13.705  18.760
   89ETHO    O129360   9.182  13.540  18.659
   89ETHO    C129361   9.279  13.582  18.566
   89ETHO   H1129362   9.271  13.692  18.548
   89ETHO   H1329363   9.386  13.573  18.594
   89ETHO    C229364   9.252  13.523  18.434
   89ETHO   H2129365   9.316  13.569  18.356
   89ETHO   H2329366   9.144  13.550  18.423
   90ETHO    O129367   9.270  13.388  18.420
   90ETHO    C129368   9.240  13.342  18.287
   90ETHO   H1129369   9.132  13.365  18.275
   90ETHO   H1329370   9.308  13.401  18.221
   90ETHO    C229371   9.274  13.189  18.278
   90ETHO   H2129372   9.212  13.151  18.194
   90ETHO   H2329373   9.233  13.143  18.370
   91ETHO    O129374   9.415  13.155  18.256
   91ETHO    C129375   9.447  13.017  18.271
   91ETHO   H1129376   9.473  13.002  18.378
   91ETHO   H1329377   9.361  12.951  18.247
   91ETHO    C229378   9.571  12.977  18.194
   91ETHO   H2129379   9.596  12.875  18.230
   91ETHO   H2329380   9.666  13.034  18.210
   92ETHO    O129381   9.543  12.964  18.061
   92ETHO    C129382   9.666  12.939  17.994
   92ETHO   H1129383   9.733  13.027  17.986
   92ETHO   H1329384   9.718  12.847  18.030
   92ETHO    C229385   9.631  12.902  17.845
   92ETHO   H2129386   9.556  12.821  17.858
   92ETHO   H2329387   9.726  12.873  17.796
   93ETHO    O129388   9.567  13.003  17.767
   93ETHO    C129389   9.635  13.119  17.741
   93ETHO   H1129390   9.652  13.181  17.832
   93ETHO   H1329391   9.566  13.179  17.679
   93ETHO    C229392   9.768  13.111  17.657
   93ETHO   H2129393   9.831  13.023  17.683
   93ETHO   H2329394   9.822  13.206  17.676
   94ETHO    O129395   9.738  13.109  17.518
   94ETHO    C129396   9.864  13.071  17.449
   94ETHO   H1129397   9.952  13.124  17.492
   94ETHO   H1329398   9.873  12.961  17.462
   94ETHO    C229399   9.866  13.106  17.299
   94ETHO   H2129400   9.970  13.118  17.261
   94ETHO   H2329401   9.827  13.210  17.299
   95ETHO    O129402   9.795  13.030  17.206
   95ETHO    C129403   9.838  12.899  17.185
   95ETHO   H1129404   9.749  12.846  17.144
   95ETHO   H1329405   9.875  12.846  17.275
   95ETHO    C229406   9.947  12.886  17.073
   95ETHO   H2129407   9.927  12.966  16.998
   95ETHO   H2329408   9.932  12.791  17.018
   96ETHO    O129409  10.084  12.896  17.115
   96ETHO    C129410  10.146  12.776  17.159
   96ETHO   H1129411  10.097  12.736  17.250
   96ETHO   H1329412  10.129  12.703  17.077
   96ETHO    C229413  10.297  12.788  17.165
   96ETHO   H2129414  10.337  12.688  17.194
   96ETHO   H2329415  10.321  12.856  17.250
   97ETHO    O129416  10.376  12.826  17.052
   97ETHO    C129417  10.393  12.722  16.959
   97ETHO   H1129418  10.298  12.694  16.909
   97ETHO   H1329419  10.422  12.624  17.003
   97ETHO    C229420  10.512  12.769  16.869
   97ETHO   H2129421  10.471  12.866  16.832
   97ETHO   H2329422  10.527  12.716  16.772
   98ETHO    O129423  10.638  12.754  16.935
   98ETHO    C129424  10.724  12.866  16.905
   98ETHO   H1129425  10.677  12.966  16.920
   98ETHO   H1329426  10.801  12.856  16.985
   98ETHO    C229427  10.781  12.866  16.769
   98ETHO   H2129428  10.809  12.762  16.741
   98ETHO   H2329429  10.876  12.922  16.771
   99ETHO    O129430  10.688  12.923  16.673
   99ETHO    C129431  10.701  12.858  16.546
   99ETHO   H1129432  10.619  12.896  16.480
   99ETHO   H1329433  10.673  12.752  16.564
   99ETHO    C229434  10.836  12.878  16.480
   99ETHO   H2129435  10.866  12.984  16.495
   99ETHO   H2329436  10.834  12.857  16.371
  100ETHO    O129437  10.937  12.790  16.531
  100ETHO    C129438  11.067  12.818  16.463
  100ETHO   H1129439  11.091  12.926  16.475
  100ETHO   H1329440  11.144  12.763  16.521
  100ETHO    C229441  11.074  12.767  16.319
  100ETHO   H2129442  11.030  12.666  16.308
  100ETHO   H2329443  11.182  12.762  16.295
  101PROX    O129444  11.015  12.860  16.230
  101PROX    C129445  10.968  12.793  16.115
  101PROX   H1129446  11.045  12.735  16.059
  101PROX   H1329447  10.891  12.727  16.160
  101PROX    C229448  10.914  12.899  16.022
  101PROX   H2129449  10.994  12.973  16.001
  101PROX    C329450  10.791  12.988  16.079
  101PROX   H3129451  10.752  13.068  16.013
  101PROX   H3229452  10.708  12.921  16.112
  101PROX   H3329453  10.837  13.034  16.169
  102PROX    O129454  10.853  12.835  15.911
  102PROX    C129455  10.954  12.795  15.819
  102PROX   H1129456  11.014  12.886  15.798
  102PROX   H1329457  11.022  12.721  15.866
  102PROX    C229458  10.893  12.741  15.693
  102PROX   H2129459  10.835  12.652  15.726
  102PROX    C329460  10.997  12.708  15.597
  102PROX   H3129461  11.084  12.653  15.638
  102PROX   H3229462  10.961  12.646  15.513
  102PROX   H3329463  11.039  12.805  15.561
  103PROX    O129464  10.804  12.829  15.635
  103PROX    C129465  10.705  12.754  15.557
  103PROX   H1129466  10.755  12.689  15.483
  103PROX   H1329467  10.646  12.684  15.620
  103PROX    C229468  10.607  12.847  15.483
  103PROX   H2129469  10.645  12.898  15.392
  103PROX    C329470  10.552  12.946  15.585
  103PROX   H3129471  10.632  13.021  15.603
  103PROX   H3229472  10.471  13.014  15.551
  103PROX   H3329473  10.510  12.895  15.674
  104PROX    O129474  10.488  12.766  15.446
  104PROX    C129475  10.517  12.675  15.335
  104PROX   H1129476  10.552  12.736  15.249
  104PROX   H1329477  10.597  12.606  15.368
  104PROX    C229478  10.394  12.593  15.285
  104PROX   H2129479  10.346  12.540  15.369
  104PROX    C329480  10.438  12.485  15.177
  104PROX   H3129481  10.523  12.421  15.211
  104PROX   H3229482  10.362  12.410  15.145
  104PROX   H3329483  10.466  12.534  15.081
  105PROX    O129484  10.296  12.684  15.225
  105PROX    C129485  10.165  12.628  15.221
  105PROX   H1129486  10.172  12.548  15.144
  105PROX   H1329487  10.156  12.583  15.322
  105PROX    C229488  10.047  12.735  15.186
  105PROX   H2129489  10.055  12.822  15.254
  105PROX    C329490   9.923  12.660  15.221
  105PROX   H3129491   9.924  12.639  15.330
  105PROX   H3229492   9.824  12.702  15.193
  105PROX   H3329493   9.917  12.561  15.171
  106PROX    O129494  10.048  12.762  15.048
  106PROX    C129495  10.169  12.817  15.002
  106PROX   H1129496  10.258  12.751  15.006
  106PROX   H1329497  10.145  12.828  14.894
  106PROX    C229498  10.198  12.953  15.050
  106PROX   H2129499  10.209  12.955  15.161
  106PROX    C329500  10.088  13.055  15.012
  106PROX   H3129501  10.098  13.067  14.902
  106PROX   H3229502   9.982  13.032  15.040
  106PROX   H3329503  10.119  13.146  15.067
  107PROX    O129504  10.321  12.983  14.990
  107PROX    C129505  10.437  12.981  15.078
  107PROX   H1129506  10.446  13.084  15.119
  107PROX   H1329507  10.426  12.925  15.173
  107PROX    C229508  10.569  12.941  15.005
  107PROX   H2129509  10.587  13.020  14.929
  107PROX    C329510  10.563  12.795  14.945
  107PROX   H3129511  10.652  12.771  14.882
  107PROX   H3229512  10.557  12.721  15.027
  107PROX   H3329513  10.474  12.783  14.879
  108PROX    O129514  10.683  12.938  15.087
  108PROX    C129515  10.727  13.065  15.129
  108PROX   H1129516  10.713  13.135  15.044
  108PROX   H1329517  10.671  13.113  15.212
  108PROX    C229518  10.878  13.066  15.165
  108PROX   H2129519  10.933  13.021  15.079
  108PROX    C329520  10.905  12.967  15.280
  108PROX   H3129521  11.008  12.926  15.290
  108PROX   H3229522  10.872  13.016  15.375
  108PROX   H3329523  10.835  12.884  15.257
  109PROX    O129524  10.931  13.198  15.175
  109PROX    C129525  11.071  13.202  15.181
  109PROX   H1129526  11.090  13.255  15.277
  109PROX   H1329527  11.130  13.109  15.195
  109PROX    C229528  11.139  13.285  15.063
  109PROX   H2129529  11.058  13.343  15.014
  109PROX    C329530  11.201  13.181  14.964
  109PROX   H3129531  11.265  13.106  15.015
  109PROX   H3229532  11.127  13.133  14.897
  109PROX   H3329533  11.266  13.245  14.900
  110PROX    O129534  11.239  13.368  15.120
  110PROX    C129535  11.182  13.499  15.163
  110PROX   H1129536  11.094  13.483  15.229
  110PROX   H1329537  11.264  13.545  15.221
  110PROX    C229538  11.154  13.598  15.052
  110PROX   H2129539  11.102  13.544  14.970
  110PROX    C329540  11.284  13.663  14.989
  110PROX   H3129541  11.268  13.710  14.890
  110PROX   H3229542  11.316  13.748  15.053
  110PROX   H3329543  11.366  13.588  14.980
  111PROX    O129544  11.065  13.694  15.099
  111PROX    C129545  10.927  13.652  15.081
  111PROX   H1129546  10.903  13.548  15.112
  111PROX   H1329547  10.884  13.715  15.162
  111PROX    C229548  10.873  13.686  14.940
  111PROX   H2129549  10.945  13.657  14.860
  111PROX    C329550  10.849  13.830  14.924
  111PROX   H3129551  10.798  13.856  14.829
  111PROX   H3229552  10.785  13.864  15.009
  111PROX   H3329553  10.944  13.887  14.932
  112PROX    O129554  10.758  13.607  14.902
  112PROX    C129555  10.802  13.484  14.845
  112PROX   H1129556  10.861  13.487  14.751
  112PROX   H1329557  10.857  13.433  14.926
  112PROX    C229558  10.676  13.396  14.822
  112PROX   H2129559  10.623  13.430  14.730
  112PROX    C329560  10.581  13.396  14.946
  112PROX   H3129561  10.521  13.302  14.947
  112PROX   H3229562  10.643  13.395  15.038
  112PROX   H3329563  10.520  13.489  14.949
  113PROX    O129564  10.713  13.257  14.801
  113PROX    C129565  10.779  13.235  14.680
  113PROX   H1129566  10.737  13.301  14.602
  113PROX   H1329567  10.887  13.257  14.697
  113PROX    C229568  10.780  13.091  14.637
  113PROX   H2129569  10.676  13.054  14.627
  113PROX    C329570  10.831  12.998  14.752
  113PROX   H3129571  10.736  12.950  14.782
  113PROX   H3229572  10.904  12.919  14.722
  113PROX   H3329573  10.884  13.054  14.832
  114PROX    O129574  10.835  13.085  14.505
  114PROX    C129575  10.796  12.962  14.443
  114PROX   H1129576  10.856  12.882  14.491
  114PROX   H1329577  10.687  12.957  14.462
  114PROX    C229578  10.808  12.963  14.291
  114PROX   H2129579  10.736  13.037  14.251
  114PROX    C329580  10.792  12.826  14.231
  114PROX   H3129581  10.806  12.827  14.121
  114PROX   H3229582  10.860  12.757  14.285
  114PROX   H3329583  10.692  12.781  14.252
  115PROX    O129584  10.947  13.005  14.254
  115PROX    C129585  10.960  13.032  14.114
  115PROX   H1129586  11.026  12.956  14.066
  115PROX   H1329587  10.856  13.035  14.074
  115PROX    C229588  11.022  13.175  14.091
  115PROX   H2129589  11.128  13.173  14.124
  115PROX    C329590  10.946  13.281  14.174
  115PROX   H3129591  10.916  13.369  14.113
  115PROX   H3229592  10.857  13.234  14.222
  115PROX   H3329593  11.023  13.304  14.249
  116PROX    O129594  11.019  13.197  13.951
  116PROX    C129595  11.093  13.313  13.920
  116PROX   H1129596  11.046  13.400  13.971
  116PROX   H1329597  11.194  13.293  13.963
  116PROX    C229598  11.090  13.348  13.771
  116PROX   H2129599  11.152  13.438  13.748
  116PROX    C329600  10.950  13.396  13.731
  116PROX   H3129601  10.904  13.450  13.817
  116PROX   H3229602  10.963  13.457  13.639
  116PROX   H3329603  10.891  13.305  13.707
  117PROX    O129604  11.124  13.238  13.690
  117PROX    C129605  11.261  13.191  13.713
  117PROX   H1129606  11.303  13.195  13.610
  117PROX   H1329607  11.321  13.254  13.781
  117PROX    C229608  11.266  13.050  13.770
  117PROX   H2129609  11.186  13.046  13.847
  117PROX    C329610  11.409  13.019  13.814
  117PROX   H3129611  11.416  12.920  13.865
  117PROX   H3229612  11.468  13.032  13.721
  117PROX   H3329613  11.453  13.094  13.882
  118PROX    O129614  11.231  12.945  13.672
  118PROX    C129615  11.094  12.948  13.642
  118PROX   H1129616  11.030  12.931  13.731
  118PROX   H1329617  11.061  13.047  13.604
  118PROX    C229618  11.057  12.844  13.528
  118PROX   H2129619  11.126  12.862  13.442
  118PROX    C329620  10.906  12.853  13.495
  118PROX   H3129621  10.886  12.784  13.410
  118PROX   H3229622  10.851  12.820  13.585
  118PROX   H3329623  10.881  12.959  13.472
  119PROX    O129624  11.084  12.714  13.579
  119PROX    C129625  11.070  12.611  13.482
  119PROX   H1129626  10.963  12.584  13.466
  119PROX   H1329627  11.097  12.651  13.381
  119PROX    C229628  11.157  12.489  13.503
  119PROX   H2129629  11.258  12.533  13.521
  119PROX    C329630  11.154  12.399  13.383
  119PROX   H3129631  11.050  12.363  13.369
  119PROX   H3229632  11.176  12.459  13.292
  119PROX   H3329633  11.208  12.305  13.406
  120PROX    O129634  11.112  12.417  13.617
  120PROX    C129635  11.216  12.374  13.692
  120PROX   H1129636  11.271  12.301  13.629
  120PROX   H1329637  11.279  12.459  13.727
  120PROX    C229638  11.168  12.293  13.810
  120PROX   H2129639  11.259  12.255  13.862
  120PROX    C329640  11.083  12.175  13.760
  120PROX   H3129641  10.982  12.210  13.728
  120PROX   H3229642  11.122  12.108  13.681
  120PROX   H3329643  11.062  12.100  13.839
  121PROX    O129644  11.102  12.373  13.906
  121PROX    C129645  11.078  12.310  14.034
  121PROX   H1129646  11.067  12.200  14.019
  121PROX   H1329647  11.167  12.334  14.096
  121PROX    C229648  10.945  12.368  14.099
  121PROX   H2129649  10.858  12.364  14.030
  121PROX    C329650  10.956  12.520  14.115
  121PROX   H3129651  10.882  12.553  14.191
  121PROX   H3229652  11.057  12.547  14.154
  121PROX   H3329653  10.952  12.578  14.020
  122PROX    O129654  10.917  12.301  14.218
  122PROX    C129655  10.867  12.169  14.201
  122PROX   H1129656  10.832  12.145  14.098
  122PROX   H1329657  10.954  12.103  14.219
  122PROX    C229658  10.752  12.155  14.308
  122PROX   H2129659  10.790  12.172  14.411
  122PROX    C329660  10.685  12.017  14.300
  122PROX   H3129661  10.594  12.004  14.362
  122PROX   H3229662  10.670  11.992  14.193
  122PROX   H3329663  10.757  11.944  14.343
  123PROX    O129664  10.640  12.238  14.274
  123PROX    C129665  10.604  12.340  14.367
  123PROX   H1129666  10.571  12.286  14.459
  123PROX   H1329667  10.691  12.409  14.376
  123PROX    C229668  10.485  12.428  14.322
  123PROX   H2129669  10.394  12.365  14.333
  123PROX    C329670  10.504  12.510  14.180
  123PROX   H3129671  10.544  12.440  14.104
  123PROX   H3229672  10.407  12.549  14.143
  123PROX   H3329673  10.587  12.582  14.195
  124PROX    O129674  10.474  12.526  14.425
  124PROX    C129675  10.400  12.482  14.539
  124PROX   H1129676  10.308  12.431  14.503
  124PROX   H1329677  10.466  12.419  14.601
  124PROX    C229678  10.365  12.598  14.635
  124PROX   H2129679  10.453  12.662  14.658
  124PROX    C329680  10.311  12.545  14.770
  124PROX   H3129681  10.395  12.493  14.822
  124PROX   H3229682  10.287  12.633  14.834
  124PROX   H3329683  10.214  12.494  14.749
  125PROX    O129684  10.259  12.676  14.579
  125PROX    C129685  10.253  12.811  14.626
  125PROX   H1129686  10.148  12.823  14.661
  125PROX   H1329687  10.326  12.827  14.708
  125PROX    C229688  10.284  12.918  14.517
  125PROX   H2129689  10.195  12.953  14.461
  125PROX    C329690  10.377  12.865  14.417
  125PROX   H3129691  10.469  12.822  14.463
  125PROX   H3229692  10.333  12.780  14.361
  125PROX   H3329693  10.395  12.941  14.338
  126PROX    O129694  10.357  13.024  14.570
  126PROX    C129695  10.272  13.112  14.646
  126PROX   H1129696  10.173  13.129  14.601
  126PROX   H1329697  10.251  13.065  14.744
  126PROX    C229698  10.346  13.242  14.672
  126PROX   H2129699  10.445  13.207  14.709
  126PROX    C329700  10.277  13.318  14.789
  126PROX   H3129701  10.185  13.361  14.744
  126PROX   H3229702  10.249  13.250  14.872
  126PROX   H3329703  10.349  13.393  14.830
  127PROX    O129704  10.369  13.336  14.566
  127PROX    C129705  10.426  13.290  14.445
  127PROX   H1129706  10.490  13.199  14.454
  127PROX   H1329707  10.350  13.237  14.383
  127PROX    C229708  10.499  13.393  14.354
  127PROX   H2129709  10.441  13.488  14.352
  127PROX    C329710  10.519  13.335  14.213
  127PROX   H3129711  10.570  13.237  14.219
  127PROX   H3229712  10.425  13.328  14.154
  127PROX   H3329713  10.578  13.403  14.148
  128PROX    O129714  10.621  13.429  14.420
  128PROX    C129715  10.700  13.527  14.353
  128PROX   H1129716  10.776  13.471  14.295
  128PROX   H1329717  10.643  13.586  14.278
  128PROX    C229718  10.773  13.611  14.464
  128PROX   H2129719  10.812  13.531  14.530
  128PROX    C329720  10.680  13.709  14.534
  128PROX   H3129721  10.632  13.779  14.462
  128PROX   H3229722  10.603  13.653  14.590
  128PROX   H3329723  10.739  13.758  14.614
  129PROX    O129724  10.882  13.688  14.403
  129PROX    C129725  10.987  13.702  14.501
  129PROX   H1129726  10.988  13.804  14.543
  129PROX   H1329727  10.981  13.629  14.585
  129PROX    C229728  11.132  13.682  14.443
  129PROX   H2129729  11.135  13.752  14.357
  129PROX    C329730  11.153  13.536  14.392
  129PROX   H3129731  11.142  13.469  14.480
  129PROX   H3229732  11.083  13.513  14.308
  129PROX   H3329733  11.258  13.525  14.357
  130PROX    O129734  11.221  13.718  14.544
  130PROX    C129735  11.342  13.767  14.495
  130PROX   H1129736  11.382  13.699  14.417
  130PROX   H1329737  11.339  13.870  14.453
  130PROX    C229738  11.439  13.770  14.613
  130PROX   H2129739  11.435  13.670  14.662
  130PROX    C329740  11.413  13.883  14.706
  130PROX   H3129741  11.436  13.971  14.642
  130PROX   H3229742  11.309  13.875  14.744
  130PROX   H3329743  11.490  13.876  14.785
  131PROX    O129744  11.573  13.784  14.575
  131PROX    C129745  11.646  13.666  14.600
  131PROX   H1129746  11.753  13.697  14.611
  131PROX   H1329747  11.614  13.626  14.699
  131PROX    C229748  11.637  13.571  14.480
  131PROX   H2129749  11.602  13.630  14.393
  131PROX    C329750  11.551  13.442  14.501
  131PROX   H3129751  11.571  13.413  14.607
  131PROX   H3229752  11.444  13.471  14.506
  131PROX   H3329753  11.569  13.357  14.432
  132PROX    O129754  11.765  13.532  14.435
  132PROX    C129755  11.769  13.502  14.294
  132PROX   H1129756  11.678  13.445  14.266
  132PROX   H1329757  11.750  13.594  14.235
  132PROX    C229758  11.898  13.432  14.254
  132PROX   H2129759  11.906  13.343  14.320
  132PROX    C329760  12.023  13.517  14.268
  132PROX   H3129761  12.116  13.460  14.244
  132PROX   H3229762  12.008  13.606  14.203
  132PROX   H3329763  12.037  13.553  14.372
  133PROX    O129764  11.898  13.382  14.123
  133PROX    C129765  11.833  13.258  14.103
  133PROX   H1129766  11.899  13.178  14.143
  133PROX   H1329767  11.748  13.247  14.172
  133PROX    C229768  11.806  13.225  13.959
  133PROX   H2129769  11.881  13.282  13.902
  133PROX    C329770  11.667  13.278  13.916
  133PROX   H3129771  11.588  13.216  13.963
  133PROX   H3229772  11.658  13.388  13.921
  133PROX   H3329773  11.663  13.262  13.806
  134PROX    O129774  11.818  13.077  13.955
  134PROX    C129775  11.859  13.046  13.819
  134PROX   H1129776  11.798  13.100  13.743
  134PROX   H1329777  11.965  13.077  13.802
  134PROX    C229778  11.844  12.904  13.780
  134PROX   H2129779  11.896  12.883  13.684
  134PROX    C329780  11.702  12.864  13.772
  134PROX   H3129781  11.693  12.755  13.755
  134PROX   H3229782  11.651  12.885  13.869
  134PROX   H3329783  11.653  12.923  13.691
  135PROX    O129784  11.889  12.812  13.876
  135PROX    C129785  12.017  12.759  13.834
  135PROX   H1129786  11.995  12.701  13.742
  135PROX   H1329787  12.079  12.848  13.811
  135PROX    C229788  12.085  12.669  13.939
  135PROX   H2129789  12.094  12.733  14.029
  135PROX    C329790  12.222  12.614  13.898
  135PROX   H3129791  12.296  12.686  13.857
  135PROX   H3229792  12.275  12.575  13.987
  135PROX   H3329793  12.198  12.539  13.820
  136PROX    O129794  11.997  12.560  13.976
  136PROX    C129795  11.913  12.590  14.082
  136PROX   H1129796  11.974  12.600  14.174
  136PROX   H1329797  11.852  12.682  14.068
  136PROX    C229798  11.819  12.472  14.104
  136PROX   H2129799  11.797  12.467  14.213
  136PROX    C329800  11.878  12.337  14.066
  136PROX   H3129801  11.813  12.251  14.093
  136PROX   H3229802  11.897  12.332  13.956
  136PROX   H3329803  11.977  12.324  14.114
  137PROX    O129804  11.689  12.488  14.037
  137PROX    C129805  11.691  12.505  13.899
  137PROX   H1129806  11.728  12.608  13.879
  137PROX   H1329807  11.756  12.432  13.846
  137PROX    C229808  11.552  12.493  13.826
  137PROX   H2129809  11.505  12.396  13.854
  137PROX    C329810  11.586  12.492  13.674
  137PROX   H3129811  11.493  12.502  13.614
  137PROX   H3229812  11.653  12.577  13.651
  137PROX   H3329813  11.640  12.399  13.645
  138PROX    O129814  11.464  12.605  13.867
  138PROX    C129815  11.392  12.582  13.989
  138PROX   H1129816  11.324  12.500  13.958
  138PROX   H1329817  11.450  12.525  14.065
  138PROX    C229818  11.312  12.700  14.056
  138PROX   H2129819  11.266  12.667  14.152
  138PROX    C329820  11.214  12.763  13.958
  138PROX   H3129821  11.239  12.747  13.851
  138PROX   H3229822  11.110  12.725  13.967
  138PROX   H3329823  11.219  12.873  13.971
  139PROX    O129824  11.404  12.806  14.097
  139PROX    C129825  11.513  12.749  14.173
  139PROX   H1129826  11.474  12.669  14.239
  139PROX   H1329827  11.588  12.715  14.099
  139PROX    C229828  11.578  12.852  14.260
  139PROX   H2129829  11.506  12.880  14.340
  139PROX    C329830  11.602  12.989  14.188
  139PROX   H3129831  11.682  12.975  14.112
  139PROX   H3229832  11.501  13.015  14.150
  139PROX   H3329833  11.627  13.072  14.257
  140PROX    O129834  11.693  12.788  14.318
  140PROX    C129835  11.660  12.686  14.413
  140PROX   H1129836  11.574  12.720  14.475
  140PROX   H1329837  11.634  12.594  14.357
  140PROX    C229838  11.770  12.664  14.513
  140PROX   H2129839  11.800  12.766  14.545
  140PROX    C329840  11.898  12.592  14.466
  140PROX   H3129841  11.889  12.486  14.434
  140PROX   H3229842  11.952  12.642  14.383
  140PROX   H3329843  11.970  12.599  14.550
  141PROX    O129844  11.713  12.596  14.622
  141PROX    C129845  11.768  12.640  14.740
  141PROX   H1129846  11.789  12.563  14.818
  141PROX   H1329847  11.866  12.687  14.720
  141PROX    C229848  11.669  12.743  14.802
  141PROX   H2129849  11.703  12.767  14.905
  141PROX    C329850  11.530  12.674  14.817
  141PROX   H3129851  11.553  12.583  14.876
  141PROX   H3229852  11.452  12.733  14.869
  141PROX   H3329853  11.485  12.657  14.717
  142PROX    O129854  11.660  12.855  14.722
  142PROX    C129855  11.773  12.949  14.749
  142PROX   H1129856  11.778  12.968  14.858
  142PROX   H1329857  11.874  12.916  14.718
  142PROX    C229858  11.757  13.077  14.672
  142PROX   H2129859  11.661  13.130  14.694
  142PROX    C329860  11.765  13.058  14.515
  142PROX   H3129861  11.850  12.990  14.492
  142PROX   H3229862  11.672  13.006  14.481
  142PROX   H3329863  11.774  13.154  14.460
  143PROX    O129864  11.868  13.158  14.696
  143PROX    C129865  11.872  13.298  14.687
  143PROX   H1129866  11.800  13.325  14.607
  143PROX   H1329867  11.832  13.339  14.782
  143PROX    C229868  12.019  13.359  14.660
  143PROX   H2129869  12.093  13.320  14.734
  143PROX    C329870  12.008  13.505  14.680
  143PROX   H3129871  11.973  13.562  14.591
  143PROX   H3229872  11.958  13.522  14.777
  143PROX   H3329873  12.115  13.529  14.698
  144PROX    O129874  12.065  13.324  14.531
  144PROX    C129875  12.114  13.192  14.514
  144PROX   H1129876  12.028  13.127  14.487
  144PROX   H1329877  12.178  13.203  14.423
  144PROX    C229878  12.205  13.130  14.627
  144PROX   H2129879  12.149  13.132  14.723
  144PROX    C329880  12.338  13.211  14.639
  144PROX   H3129881  12.314  13.319  14.641
  144PROX   H3229882  12.389  13.181  14.733
  144PROX   H3329883  12.404  13.178  14.556
  145PROX    O129884  12.250  12.997  14.595
  145PROX    C129885  12.156  12.895  14.638
  145PROX   H1129886  12.048  12.922  14.628
  145PROX   H1329887  12.171  12.798  14.587
  145PROX    C229888  12.173  12.872  14.790
  145PROX   H2129889  12.281  12.893  14.805
  145PROX    C329890  12.144  12.723  14.835
  145PROX   H3129891  12.187  12.714  14.937
  145PROX   H3229892  12.036  12.711  14.856
  145PROX   H3329893  12.185  12.640  14.774
  146PROX    O129894  12.088  12.962  14.862
  146PROX    C129895  12.094  12.947  15.002
  146PROX   H1129896  12.039  12.859  15.040
  146PROX   H1329897  12.198  12.928  15.037
  146PROX    C229898  12.036  13.076  15.077
  146PROX   H2129899  11.951  13.121  15.021
  146PROX    C329900  12.137  13.181  15.104
  146PROX   H3129901  12.146  13.244  15.013
  146PROX   H3229902  12.107  13.241  15.193
  146PROX   H3329903  12.231  13.130  15.134
  147PROX    O129904  11.978  13.039  15.207
  147PROX    C129905  12.074  12.978  15.302
  147PROX   H1129906  12.148  12.906  15.261
  147PROX   H1329907  12.127  13.067  15.343
  147PROX    C229908  12.001  12.908  15.415
  147PROX   H2129909  11.925  12.979  15.455
  147PROX    C329910  12.097  12.885  15.539
  147PROX   H3129911  12.180  12.814  15.517
  147PROX   H3229912  12.145  12.980  15.569
  147PROX   H3329913  12.041  12.857  15.631
  148PROX    O129914  11.943  12.779  15.379
  148PROX    C129915  11.863  12.723  15.476
  148PROX   H1129916  11.929  12.649  15.526
  148PROX   H1329917  11.821  12.796  15.548
  148PROX    C229918  11.748  12.640  15.413
  148PROX   H2129919  11.683  12.715  15.363
  148PROX    C329920  11.668  12.569  15.522
  148PROX   H3129921  11.721  12.474  15.545
  148PROX   H3229922  11.657  12.624  15.618
  148PROX   H3329923  11.561  12.552  15.495
  149PROX    O129924  11.807  12.552  15.316
  149PROX    C129925  11.715  12.490  15.227
  149PROX   H1129926  11.656  12.411  15.279
  149PROX   H1329927  11.640  12.564  15.192
  149PROX    C229928  11.785  12.429  15.107
  149PROX   H2129929  11.833  12.333  15.137
  149PROX    C329930  11.903  12.519  15.066
  149PROX   H3129931  11.875  12.620  15.028
  149PROX   H3229932  11.971  12.536  15.153
  149PROX   H3329933  11.971  12.477  14.990
  150PROX    O129934  11.687  12.402  15.007
  150PROX    C129935  11.718  12.292  14.922
  150PROX   H1129936  11.819  12.304  14.877
  150PROX   H1329937  11.722  12.194  14.973
  150PROX    C229938  11.630  12.287  14.796
  150PROX   H2129939  11.616  12.392  14.762
  150PROX    C329940  11.494  12.231  14.834
  150PROX   H3129941  11.448  12.288  14.917
  150PROX   H3229942  11.427  12.241  14.746
  150PROX   H3329943  11.503  12.126  14.870
  151PROX    O129944  11.687  12.204  14.699
  151PROX    C129945  11.661  12.247  14.557
  151PROX   H1129946  11.551  12.256  14.547
  151PROX   H1329947  11.701  12.348  14.535
  151PROX    C229948  11.719  12.141  14.462
  151PROX   H2129949  11.702  12.040  14.505
  151PROX    C329950  11.873  12.169  14.438
  151PROX   H3129951  11.929  12.170  14.533
  151PROX   H3229952  11.915  12.092  14.370
  151PROX   H3329953  11.889  12.266  14.386
  152PROX    O129954  11.658  12.158  14.338
  152PROX    C129955  11.530  12.095  14.325
  152PROX   H1129956  11.551  11.999  14.273
  152PROX   H1329957  11.485  12.073  14.424
  152PROX    C229958  11.435  12.174  14.219
  152PROX   H2129959  11.342  12.112  14.213
  152PROX    C329960  11.509  12.199  14.085
  152PROX   H3129961  11.556  12.100  14.068
  152PROX   H3229962  11.447  12.236  14.001
  152PROX   H3329963  11.586  12.278  14.105
  153PROX    O129964  11.395  12.298  14.273
  153PROX    C129965  11.285  12.286  14.359
  153PROX   H1129966  11.198  12.244  14.305
  153PROX   H1329967  11.297  12.221  14.448
  153PROX    C229968  11.247  12.421  14.413
  153PROX   H2129969  11.241  12.483  14.321
  153PROX    C329970  11.349  12.482  14.512
  153PROX   H3129971  11.336  12.593  14.515
  153PROX   H3229972  11.326  12.439  14.611
  153PROX   H3329973  11.455  12.457  14.489
  154PROX    O129974  11.122  12.399  14.470
  154PROX    C129975  11.048  12.515  14.495
  154PROX   H1129976  11.110  12.589  14.550
  154PROX   H1329977  11.026  12.561  14.396
  154PROX    C229978  10.919  12.488  14.571
  154PROX   H2129979  10.859  12.414  14.515
  154PROX    C329980  10.834  12.611  14.590
  154PROX   H3129981  10.794  12.662  14.500
  154PROX   H3229982  10.745  12.584  14.650
  154PROX   H3329983  10.886  12.690  14.648
  155PROX    O129984  10.955  12.446  14.706
  155PROX    C129985  10.932  12.306  14.726
  155PROX   H1129986  10.825  12.275  14.721
  155PROX   H1329987  10.975  12.252  14.639
  155PROX    C229988  10.985  12.262  14.857
  155PROX   H2129989  10.988  12.344  14.932
  155PROX    C329990  11.132  12.233  14.817
  155PROX   H3129991  11.179  12.330  14.788
  155PROX   H3229992  11.194  12.190  14.898
  155PROX   H3329993  11.130  12.161  14.733
  156PROX    O129994  10.922  12.147  14.912
  156PROX    C129995  10.805  12.182  14.982
  156PROX   H1129996  10.826  12.271  15.045
  156PROX   H1329997  10.736  12.223  14.905
  156PROX    C229998  10.720  12.068  15.045
  156PROX   H2129999  10.703  12.002  14.957
  156PROX    C330000  10.583  12.109  15.105
  156PROX   H3130001  10.539  12.203  15.065
  156PROX   H3230002  10.514  12.023  15.108
  156PROX   H3330003  10.601  12.131  15.212
  157PROX    O130004  10.802  11.987  15.128
  157PROX    C130005  10.859  12.044  15.243
  157PROX   H1130006  10.857  12.155  15.241
  157PROX   H1330007  10.812  12.015  15.339
  157PROX    C230008  11.011  12.017  15.255
  157PROX   H2130009  11.059  12.038  15.157
  157PROX    C330010  11.033  11.872  15.302
  157PROX   H3130011  10.977  11.804  15.235
  157PROX   H3230012  11.139  11.844  15.286
  157PROX   H3330013  10.997  11.850  15.405
  158PROX    O130014  11.085  12.109  15.344
  158PROX    C130015  11.230  12.118  15.332
  158PROX   H1130016  11.280  12.021  15.350
  158PROX   H1330017  11.242  12.147  15.225
  158PROX    C230018  11.283  12.247  15.405
  158PROX   H2130019  11.394  12.250  15.391
  158PROX    C330020  11.275  12.242  15.555
  158PROX   H3130021  11.344  12.163  15.592
  158PROX   H3230022  11.303  12.337  15.605
  158PROX   H3330023  11.175  12.224  15.600
  159PROX    O130024  11.217  12.361  15.367
  159PROX    C130025  11.300  12.477  15.376
  159PROX   H1130026  11.254  12.533  15.460
  159PROX   H1330027  11.407  12.466  15.406
  159PROX    C230028  11.296  12.577  15.265
  159PROX   H2130029  11.195  12.622  15.255
  159PROX    C330030  11.337  12.520  15.130
  159PROX   H3130031  11.270  12.436  15.100
  159PROX   H3230032  11.330  12.595  15.049
  159PROX   H3330033  11.443  12.488  15.124
  160PROX    O130034  11.390  12.673  15.306
  160PROX    C130035  11.380  12.798  15.241
  160PROX   H1130036  11.443  12.791  15.150
  160PROX   H1330037  11.276  12.811  15.204
  160PROX    C230038  11.408  12.920  15.337
  160PROX   H2130039  11.506  12.911  15.388
  160PROX    C330040  11.302  12.939  15.441
  160PROX   H3130041  11.338  13.035  15.486
  160PROX   H3230042  11.198  12.950  15.404
  160PROX   H3330043  11.302  12.861  15.520
  161PROX    O130044  11.407  13.037  15.258
  161PROX    C130045  11.525  13.056  15.174
  161PROX   H1130046  11.616  13.050  15.237
  161PROX   H1330047  11.515  12.975  15.098
  161PROX    C230048  11.536  13.193  15.111
  161PROX   H2130049  11.436  13.237  15.087
  161PROX    C330050  11.606  13.167  14.975
  161PROX   H3130051  11.610  13.267  14.928
  161PROX   H3230052  11.709  13.128  14.987
  161PROX   H3330053  11.543  13.101  14.912
  162PROX    O130054  11.625  13.280  15.187
  162PROX    C130055  11.558  13.340  15.297
  162PROX   H1130056  11.509  13.436  15.270
  162PROX   H1330057  11.478  13.279  15.344
  162PROX    C230058  11.656  13.375  15.408
  162PROX   H2130059  11.741  13.429  15.361
  162PROX    C330060  11.725  13.250  15.475
  162PROX   H3130061  11.798  13.275  15.555
  162PROX   H3230062  11.659  13.168  15.510
  162PROX   H3330063  11.791  13.217  15.391
  163PROX    O130064  11.597  13.467  15.501
  163PROX    C130065  11.496  13.402  15.583
  163PROX   H1130066  11.476  13.296  15.557
  163PROX   H1330067  11.519  13.415  15.691
  163PROX    C230068  11.366  13.475  15.565
  163PROX   H2130069  11.344  13.451  15.459
  163PROX    C330070  11.378  13.624  15.586
  163PROX   H3130071  11.452  13.638  15.668
  163PROX   H3230072  11.414  13.666  15.489
  163PROX   H3330073  11.276  13.658  15.613
  164PROX    O130074  11.273  13.422  15.656
  164PROX    C130075  11.226  13.288  15.617
  164PROX   H1130076  11.254  13.261  15.513
  164PROX   H1330077  11.261  13.215  15.694
  164PROX    C230078  11.073  13.273  15.618
  164PROX   H2130079  11.039  13.316  15.715
  164PROX    C330080  11.027  13.121  15.602
  164PROX   H3130081  10.918  13.118  15.582
  164PROX   H3230082  11.074  13.061  15.520
  164PROX   H3330083  11.057  13.064  15.693
  165PROX    O130084  11.014  13.346  15.510
  165PROX    C130085  10.882  13.386  15.531
  165PROX   H1130086  10.821  13.293  15.537
  165PROX   H1330087  10.871  13.436  15.629
  165PROX    C230088  10.816  13.473  15.421
  165PROX   H2130089  10.844  13.444  15.318
  165PROX    C330090  10.861  13.620  15.445
  165PROX   H3130091  10.800  13.652  15.531
  165PROX   H3230092  10.970  13.622  15.465
  165PROX   H3330093  10.853  13.687  15.357
  166ETHO    O130094  10.669  13.479  15.442
  166ETHO    C130095  10.601  13.388  15.358
  166ETHO   H1130096  10.649  13.288  15.362
  166ETHO   H1330097  10.601  13.438  15.259
  166ETHO    C230098  10.442  13.369  15.386
  166ETHO   H2130099  10.397  13.313  15.300
  166ETHO   H2330100  10.388  13.465  15.375
  167ETHO    O130101  10.414  13.293  15.495
  167ETHO    C130102  10.277  13.308  15.533
  167ETHO   H1130103  10.256  13.400  15.592
  167ETHO   H1330104  10.210  13.310  15.444
  167ETHO    C230105  10.235  13.190  15.620
  167ETHO   H2130106  10.244  13.093  15.566
  167ETHO   H2330107  10.132  13.214  15.654
  168ETHO    O130108  10.316  13.198  15.738
  168ETHO    C130109  10.288  13.086  15.830
  168ETHO   H1130110  10.303  12.992  15.773
  168ETHO   H1330111  10.185  13.078  15.872
  168ETHO    C230112  10.382  13.085  15.944
  168ETHO   H2130113  10.488  13.079  15.911
  168ETHO   H2330114  10.359  12.992  16.001
  169ETHO    O130115  10.348  13.191  16.043
  169ETHO    C130116  10.448  13.300  16.047
  169ETHO   H1130117  10.546  13.250  16.063
  169ETHO   H1330118  10.453  13.351  15.948
  169ETHO    C230119  10.427  13.403  16.155
  169ETHO   H2130120  10.329  13.454  16.145
  169ETHO   H2330121  10.505  13.481  16.144
  170ETHO    O130122  10.430  13.343  16.287
  170ETHO    C130123  10.563  13.320  16.334
  170ETHO   H1130124  10.602  13.416  16.374
  170ETHO   H1330125  10.629  13.291  16.250
  170ETHO    C230126  10.575  13.226  16.455
  170ETHO   H2130127  10.685  13.207  16.456
  170ETHO   H2330128  10.527  13.128  16.438
  171ETHO    O130129  10.527  13.274  16.585
  171ETHO    C130130  10.562  13.200  16.704
  171ETHO   H1130131  10.514  13.100  16.700
  171ETHO   H1330132  10.672  13.182  16.700
  171ETHO    C230133  10.533  13.285  16.831
  171ETHO   H2130134  10.598  13.374  16.821
  171ETHO   H2330135  10.569  13.231  16.921
  172ETHO    O130136  10.401  13.333  16.860
  172ETHO    C130137  10.394  13.427  16.964
  172ETHO   H1130138  10.465  13.511  16.943
  172ETHO   H1330139  10.432  13.376  17.054
  172ETHO    C230140  10.259  13.483  16.994
  172ETHO   H2130141  10.265  13.548  17.084
  172ETHO   H2330142  10.183  13.407  17.024
  173ETHO    O130143  10.194  13.541  16.879
  173ETHO    C130144  10.053  13.566  16.889
  173ETHO   H1130145  10.011  13.622  16.803
  173ETHO   H1330146   9.992  13.474  16.901
  173ETHO    C230147  10.019  13.653  17.012
  173ETHO   H2130148  10.083  13.744  17.012
  173ETHO   H2330149   9.915  13.691  17.003
  174ETHO    O130150  10.025  13.579  17.135
  174ETHO    C130151  10.051  13.662  17.246
  174ETHO   H1130152  10.155  13.703  17.242
  174ETHO   H1330153   9.984  13.750  17.239
  174ETHO    C230154  10.011  13.606  17.381
  174ETHO   H2130155   9.904  13.576  17.378
  174ETHO   H2330156  10.008  13.686  17.458
  175ETHO    O130157  10.105  13.515  17.443
  175ETHO    C130158  10.066  13.457  17.566
  175ETHO   H1130159   9.982  13.519  17.605
  175ETHO   H1330160  10.021  13.358  17.543
  175ETHO    C230161  10.186  13.466  17.658
  175ETHO   H2130162  10.277  13.436  17.602
  175ETHO   H2330163  10.174  13.395  17.743
  176ETHO    O130164  10.203  13.599  17.706
  176ETHO    C130165  10.329  13.626  17.772
  176ETHO   H1130166  10.331  13.567  17.866
  176ETHO   H1330167  10.409  13.583  17.708
  176ETHO    C230168  10.341  13.772  17.807
  176ETHO   H2130169  10.321  13.847  17.727
  176ETHO   H2330170  10.441  13.797  17.849
  177ETHO    O130171  10.240  13.797  17.907
  177ETHO    C130172  10.223  13.932  17.936
  177ETHO   H1130173  10.207  13.996  17.846
  177ETHO   H1330174  10.318  13.974  17.977
  177ETHO    C230175  10.104  13.957  18.026
  177ETHO   H2130176  10.007  13.919  17.987
  177ETHO   H2330177  10.096  14.066  18.047
  178ETHO    O130178  10.128  13.885  18.150
  178ETHO    C130179  10.023  13.908  18.243
  178ETHO   H1130180  10.008  14.017  18.256
  178ETHO   H1330181   9.929  13.869  18.197
  178ETHO    C230182  10.042  13.836  18.381
  178ETHO   H2130183  10.029  13.729  18.354
  178ETHO   H2330184   9.954  13.870  18.438
  179ETHO    O130185  10.156  13.870  18.458
  179ETHO    C130186  10.253  13.757  18.461
  179ETHO   H1130187  10.279  13.743  18.354
  179ETHO   H1330188  10.204  13.671  18.512
  179ETHO    C230189  10.379  13.783  18.550
  179ETHO   H2130190  10.447  13.861  18.509
  179ETHO   H2330191  10.438  13.689  18.550
  180ETHO    O130192  10.354  13.809  18.686
  180ETHO    C130193  10.460  13.844  18.770
  180ETHO   H1130194  10.547  13.778  18.753
  180ETHO   H1330195  10.474  13.951  18.743
  180ETHO    C230196  10.420  13.829  18.923
  180ETHO   H2130197  10.337  13.902  18.938
  180ETHO   H2330198  10.512  13.850  18.982
  181ETHO    O130199  10.381  13.700  18.948
  181ETHO    C130200  10.394  13.661  19.084
  181ETHO   H1130201  10.472  13.722  19.135
  181ETHO   H1330202  10.409  13.551  19.090
  181ETHO    C230203  10.261  13.681  19.165
  181ETHO   H2130204  10.249  13.624  19.259
  181ETHO   H2330205  10.181  13.639  19.100
  182ETHO    O130206  10.241  13.819  19.186
  182ETHO    C130207  10.103  13.847  19.201
  182ETHO   H1130208  10.038  13.835  19.111
  182ETHO   H1330209  10.072  13.786  19.288
  182ETHO    C230210  10.092  13.989  19.253
  182ETHO   H2130211  10.144  14.002  19.350
  182ETHO   H2330212   9.983  14.003  19.271
  183ETHO    O130213  10.119  14.090  19.154
  183ETHO    C130214  10.251  14.143  19.169
  183ETHO   H1130215  10.309  14.112  19.079
  183ETHO   H1330216  10.305  14.104  19.258
  183ETHO    C230217  10.259  14.297  19.188
  183ETHO   H2130218  10.188  14.333  19.110
  183ETHO   H2330219  10.363  14.333  19.172
  184ETHO    O130220  10.217  14.349  19.315
  184ETHO    C130221  10.200  14.491  19.311
  184ETHO   H1130222  10.294  14.543  19.282
  184ETHO   H1330223  10.125  14.521  19.235
  184ETHO    C230224  10.164  14.549  19.451
  184ETHO   H2130225  10.148  14.658  19.441
  184ETHO   H2330226  10.251  14.526  19.517
  185ETHO    O130227  10.049  14.495  19.512
  185ETHO    C130228  10.034  14.541  19.643
  185ETHO   H1130229  10.130  14.558  19.695
  185ETHO   H1330230   9.973  14.633  19.653
  185ETHO    C230231   9.952  14.428  19.705
  185ETHO   H2130232   9.851  14.418  19.661
  185ETHO   H2330233   9.934  14.465  19.808
  186ETHO    O130234  10.026  14.307  19.724
  186ETHO    C130235   9.966  14.234  19.835
  186ETHO   H1130236   9.991  14.269  19.937
  186ETHO   H1330237   9.856  14.246  19.828
  186ETHO    C230238  10.009  14.090  19.827
  186ETHO   H2130239  10.010  14.033  19.923
  186ETHO   H2330240  10.116  14.088  19.795
  187ETHO    O130241   9.936  14.010  19.733
  187ETHO    C130242   9.952  13.873  19.740
  187ETHO   H1130243  10.043  13.851  19.680
  187ETHO   H1330244   9.967  13.836  19.844
  187ETHO    C230245   9.823  13.792  19.698
  187ETHO   H2130246   9.851  13.685  19.709
  187ETHO   H2330247   9.803  13.816  19.591
  188ETHO    O130248   9.712  13.822  19.782
  188ETHO    C130249   9.623  13.716  19.772
  188ETHO   H1130250   9.675  13.621  19.795
  188ETHO   H1330251   9.578  13.716  19.671
  188ETHO    C230252   9.507  13.703  19.872
  188ETHO   H2130253   9.432  13.629  19.838
  188ETHO   H2330254   9.459  13.804  19.870
  189ETHO    O130255   9.552  13.670  20.002
  189ETHO    C130256   9.454  13.667  20.111
  189ETHO   H1130257   9.390  13.757  20.125
  189ETHO   H1330258   9.389  13.578  20.099
  189ETHO    C230259   9.532  13.653  20.247
  189ETHO   H2130260   9.587  13.558  20.261
  189ETHO   H2330261   9.452  13.663  20.323
  190ETHO    O130262   9.621  13.761  20.265
  190ETHO    C130263   9.687  13.764  20.391
  190ETHO   H1130264   9.728  13.662  20.408
  190ETHO   H1330265   9.610  13.780  20.470
  190ETHO    C230266   9.795  13.872  20.391
  190ETHO   H2130267   9.841  13.887  20.491
  190ETHO   H2330268   9.748  13.964  20.351
  191ETHO    O130269   9.903  13.832  20.308
  191ETHO    C130270   9.982  13.937  20.252
  191ETHO   H1130271   9.930  13.989  20.169
  191ETHO   H1330272  10.007  14.001  20.340
  191ETHO    C230273  10.112  13.882  20.208
  191ETHO   H2130274  10.166  13.835  20.293
  191ETHO   H2330275  10.174  13.973  20.192
  192ETHO    O130276  10.107  13.792  20.098
  192ETHO    C130277  10.237  13.732  20.063
  192ETHO   H1130278  10.263  13.659  20.142
  192ETHO   H1330279  10.316  13.811  20.069
  192ETHO    C230280  10.238  13.684  19.917
  192ETHO   H2130281  10.140  13.635  19.896
  192ETHO   H2330282  10.319  13.610  19.903
  193ETHO    O130283  10.268  13.784  19.814
  193ETHO    C130284  10.300  13.729  19.686
  193ETHO   H1130285  10.391  13.665  19.690
  193ETHO   H1330286  10.218  13.665  19.647
  193ETHO    C230287  10.318  13.835  19.575
  193ETHO   H2130288  10.224  13.894  19.565
  193ETHO   H2330289  10.338  13.778  19.482
  194ETHO    O130290  10.427  13.919  19.584
  194ETHO    C130291  10.441  14.012  19.480
  194ETHO   H1130292  10.351  14.076  19.483
  194ETHO   H1330293  10.442  13.956  19.384
  194ETHO    C230294  10.572  14.089  19.493
  194ETHO   H2130295  10.593  14.119  19.598
  194ETHO   H2330296  10.566  14.183  19.434
  195ETHO    O130297  10.677  13.999  19.443
  195ETHO    C130298  10.796  14.070  19.400
  195ETHO   H1130299  10.820  14.135  19.486
  195ETHO   H1330300  10.875  13.997  19.372
  195ETHO    C230301  10.773  14.151  19.262
  195ETHO   H2130302  10.873  14.180  19.224
  195ETHO   H2330303  10.702  14.235  19.279
  196ETHO    O130304  10.714  14.053  19.172
  196ETHO    C130305  10.669  14.116  19.053
  196ETHO   H1130306  10.588  14.051  19.012
  196ETHO   H1330307  10.614  14.210  19.075
  196ETHO    C230308  10.789  14.138  18.961
  196ETHO   H2130309  10.886  14.163  19.008
  196ETHO   H2330310  10.770  14.226  18.895
  197ETHO    O130311  10.807  14.019  18.883
  197ETHO    C130312  10.913  14.036  18.791
  197ETHO   H1130313  10.897  14.135  18.743
  197ETHO   H1330314  11.013  14.037  18.840
  197ETHO    C230315  10.928  13.938  18.674
  197ETHO   H2130316  10.920  13.834  18.710
  197ETHO   H2330317  11.021  13.958  18.615
  198ETHO    O130318  10.820  13.954  18.578
  198ETHO    C130319  10.829  13.848  18.484
  198ETHO   H1130320  10.928  13.826  18.438
  198ETHO   H1330321  10.790  13.762  18.541
  198ETHO    C230322  10.733  13.872  18.370
  198ETHO   H2130323  10.794  13.932  18.300
  198ETHO   H2330324  10.648  13.933  18.408
  199ETHO    O130325  10.685  13.755  18.313
  199ETHO    C130326  10.594  13.779  18.213
  199ETHO   H1130327  10.627  13.864  18.150
  199ETHO   H1330328  10.498  13.804  18.263
  199ETHO    C230329  10.581  13.652  18.121
  199ETHO   H2130330  10.490  13.664  18.059
  199ETHO   H2330331  10.562  13.566  18.189
  200ETHO    O130332  10.700  13.628  18.040
  200ETHO    C130333  10.702  13.504  17.974
  200ETHO   H1130334  10.687  13.423  18.049
  200ETHO   H1330335  10.622  13.484  17.899
  200ETHO    C230336  10.841  13.464  17.909
  200ETHO   H2130337  10.828  13.356  17.886
  200ETHO   H2330338  10.922  13.483  17.981
  201ETHO    O130339  10.852  13.518  17.775
  201ETHO    C130340  10.983  13.507  17.724
  201ETHO   H1130341  11.007  13.405  17.688
  201ETHO   H1330342  11.046  13.540  17.810
  201ETHO    C230343  11.025  13.617  17.630
  201ETHO   H2130344  11.136  13.607  17.626
  201ETHO   H2330345  11.000  13.718  17.669
  202ETHO    O130346  10.964  13.608  17.506
  202ETHO    C130347  11.043  13.672  17.404
  202ETHO   H1130348  11.076  13.771  17.443
  202ETHO   H1330349  11.136  13.613  17.385
  202ETHO    C230350  10.973  13.691  17.271
  202ETHO   H2130351  11.048  13.752  17.215
  202ETHO   H2330352  10.885  13.759  17.274
  203ETHO    O130353  10.948  13.557  17.213
  203ETHO    C130354  11.051  13.514  17.124
  203ETHO   H1130355  11.142  13.514  17.187
  203ETHO   H1330356  11.065  13.598  17.053
  203ETHO    C230357  11.019  13.379  17.056
  203ETHO   H2130358  10.985  13.306  17.133
  203ETHO   H2330359  11.111  13.335  17.013
  204ETHO    O130360  10.926  13.401  16.946
  204ETHO    C130361  10.939  13.306  16.840
  204ETHO   H1130362  10.945  13.205  16.887
  204ETHO   H1330363  10.844  13.309  16.783
  204ETHO    C230364  11.061  13.331  16.746
  204ETHO   H2130365  11.093  13.241  16.689
  204ETHO   H2330366  11.143  13.377  16.804
  205ETHO    O130367  11.022  13.436  16.656
  205ETHO    C130368  11.135  13.503  16.592
  205ETHO   H1130369  11.199  13.429  16.540
  205ETHO   H1330370  11.207  13.552  16.661
  205ETHO    C230371  11.084  13.604  16.488
  205ETHO   H2130372  10.985  13.582  16.443
  205ETHO   H2330373  11.146  13.624  16.399
  206ETHO    O130374  11.080  13.726  16.563
  206ETHO    C130375  11.032  13.843  16.491
  206ETHO   H1130376  11.105  13.858  16.409
  206ETHO   H1330377  10.928  13.826  16.455
  206ETHO    C230378  11.042  13.976  16.571
  206ETHO   H2130379  10.999  13.971  16.674
  206ETHO   H2330380  11.152  13.991  16.575
  207ETHO    O130381  10.970  14.084  16.511
  207ETHO    C130382  10.989  14.210  16.585
  207ETHO   H1130383  11.094  14.244  16.595
  207ETHO   H1330384  10.955  14.188  16.688
  207ETHO    C230385  10.909  14.318  16.520
  207ETHO   H2130386  10.928  14.412  16.574
  207ETHO   H2330387  10.800  14.294  16.519
  208ETHO    O130388  10.962  14.329  16.382
  208ETHO    C130389  10.894  14.430  16.305
  208ETHO   H1130390  10.785  14.412  16.310
  208ETHO   H1330391  10.912  14.532  16.344
  208ETHO    C230392  10.953  14.416  16.169
  208ETHO   H2130393  11.063  14.396  16.176
  208ETHO   H2330394  10.933  14.518  16.129
  209ETHO    O130395  10.888  14.310  16.095
  209ETHO    C130396  10.936  14.288  15.961
  209ETHO   H1130397  11.041  14.253  15.972
  209ETHO   H1330398  10.928  14.376  15.895
  209ETHO    C230399  10.867  14.173  15.894
  209ETHO   H2130400  10.799  14.218  15.818
  209ETHO   H2330401  10.808  14.109  15.964
  210ETHO    O130402  10.960  14.095  15.821
  210ETHO    C130403  10.887  13.993  15.745
  210ETHO   H1130404  10.848  13.921  15.821
  210ETHO   H1330405  10.808  14.027  15.675
  210ETHO    C230406  10.985  13.901  15.670
  210ETHO   H2130407  10.943  13.799  15.669
  210ETHO   H2330408  11.080  13.907  15.727
  211ETHO    O130409  11.012  13.946  15.534
  211ETHO    C130410  11.145  13.911  15.484
  211ETHO   H1130411  11.230  13.974  15.517
  211ETHO   H1330412  11.178  13.813  15.523
  211ETHO    C230413  11.140  13.905  15.329
  211ETHO   H2130414  11.044  13.858  15.297
  211ETHO   H2330415  11.232  13.858  15.288
  212ETHO    O130416  11.127  14.036  15.280
  212ETHO    C130417  11.157  14.039  15.142
  212ETHO   H1130418  11.262  14.009  15.125
  212ETHO   H1330419  11.091  13.977  15.079
  212ETHO    C230420  11.145  14.186  15.088
  212ETHO   H2130421  11.197  14.260  15.152
  212ETHO   H2330422  11.038  14.216  15.093
  213ETHO    O130423  11.195  14.195  14.953
  213ETHO    C130424  11.166  14.313  14.884
  213ETHO   H1130425  11.072  14.359  14.924
  213ETHO   H1330426  11.250  14.384  14.901
  213ETHO    C230427  11.149  14.271  14.739
  213ETHO   H2130428  11.094  14.356  14.692
  213ETHO   H2330429  11.086  14.180  14.727
  214ETHO    O130430  11.268  14.268  14.662
  214ETHO    C130431  11.244  14.227  14.525
  214ETHO   H1130432  11.170  14.284  14.465
  214ETHO   H1330433  11.207  14.122  14.529
  214ETHO    C230434  11.391  14.214  14.464
  214ETHO   H2130435  11.454  14.157  14.535
  214ETHO   H2330436  11.441  14.311  14.441
  215ETHO    O130437  11.383  14.141  14.340
  215ETHO    C130438  11.509  14.095  14.294
  215ETHO   H1130439  11.587  14.175  14.294
  215ETHO   H1330440  11.544  14.019  14.367
  215ETHO    C230441  11.491  14.046  14.149
  215ETHO   H2130442  11.594  14.022  14.116
  215ETHO   H2330443  11.436  14.119  14.086
  216ETHO    O130444  11.412  13.927  14.141
  216ETHO    C130445  11.483  13.802  14.162
  216ETHO   H1130446  11.519  13.804  14.267
  216ETHO   H1330447  11.578  13.798  14.104
  216ETHO    C230448  11.392  13.682  14.136
  216ETHO   H2130449  11.342  13.682  14.037
  216ETHO   H2330450  11.314  13.708  14.211
  217ETHO    O130451  11.455  13.558  14.172
  217ETHO    C130452  11.382  13.457  14.100
  217ETHO   H1130453  11.274  13.470  14.078
  217ETHO   H1330454  11.437  13.459  14.003
  217ETHO    C230455  11.402  13.313  14.153
  217ETHO   H2130456  11.509  13.311  14.183
  217ETHO   H2330457  11.388  13.236  14.074
  218ETHO    O130458  11.324  13.293  14.267
  218ETHO    C130459  11.344  13.159  14.325
  218ETHO   H1130460  11.450  13.142  14.352
  218ETHO   H1330461  11.304  13.085  14.252
  218ETHO    C230462  11.249  13.141  14.443
  218ETHO   H2130463  11.146  13.157  14.407
  218ETHO   H2330464  11.276  13.216  14.521
  219ETHO    O130465  11.267  13.012  14.505
  219ETHO    C130466  11.174  13.002  14.614
  219ETHO   H1130467  11.197  13.080  14.690
  219ETHO   H1330468  11.067  13.013  14.585
  219ETHO    C230469  11.192  12.867  14.683
  219ETHO   H2130470  11.298  12.845  14.705
  219ETHO   H2330471  11.156  12.798  14.604
  220ETHO    O130472  11.123  12.856  14.800
  220ETHO    C130473  11.135  12.724  14.857
  220ETHO   H1130474  11.228  12.710  14.916
  220ETHO   H1330475  11.131  12.643  14.780
  220ETHO    C230476  11.016  12.716  14.953
  220ETHO   H2130477  10.917  12.714  14.903
  220ETHO   H2330478  11.006  12.809  15.014
  221ETHO    O130479  11.017  12.605  15.049
  221ETHO    C130480  10.900  12.603  15.130
  221ETHO   H1130481  10.876  12.706  15.163
  221ETHO   H1330482  10.815  12.567  15.068
  221ETHO    C230483  10.924  12.515  15.261
  221ETHO   H2130484  10.998  12.567  15.325
  221ETHO   H2330485  10.957  12.413  15.231
  222ETHO    O130486  10.807  12.477  15.337
  222ETHO    C130487  10.844  12.395  15.443
  222ETHO   H1130488  10.905  12.309  15.410
  222ETHO   H1330489  10.911  12.444  15.518
  222ETHO    C230490  10.717  12.329  15.500
  222ETHO   H2130491  10.756  12.236  15.547
  222ETHO   H2330492  10.655  12.307  15.410
  223ETHO    O130493  10.650  12.410  15.599
  223ETHO    C130494  10.526  12.350  15.642
  223ETHO   H1130495  10.467  12.426  15.699
  223ETHO   H1330496  10.469  12.320  15.552
  223ETHO    C230497  10.547  12.225  15.734
  223ETHO   H2130498  10.622  12.151  15.698
  223ETHO   H2330499  10.447  12.177  15.748
  224ETHO    O130500  10.586  12.282  15.861
  224ETHO    C130501  10.583  12.193  15.962
  224ETHO   H1130502  10.491  12.132  15.966
  224ETHO   H1330503  10.661  12.118  15.938
  224ETHO    C230504  10.589  12.267  16.097
  224ETHO   H2130505  10.655  12.354  16.078
  224ETHO   H2330506  10.642  12.200  16.169
  225ETHO    O130507  10.469  12.319  16.158
  225ETHO    C130508  10.499  12.419  16.261
  225ETHO   H1130509  10.567  12.496  16.221
  225ETHO   H1330510  10.561  12.365  16.336
  225ETHO    C230511  10.366  12.471  16.316
  225ETHO   H2130512  10.326  12.402  16.393
  225ETHO   H2330513  10.302  12.469  16.226
  226ETHO    O130514  10.374  12.603  16.352
  226ETHO    C130515  10.251  12.638  16.418
  226ETHO   H1130516  10.216  12.735  16.376
  226ETHO   H1330517  10.167  12.575  16.382
  226ETHO    C230518  10.258  12.666  16.575
  226ETHO   H2130519  10.298  12.578  16.630
  226ETHO   H2330520  10.152  12.684  16.603
  227ETHO    O130521  10.340  12.777  16.619
  227ETHO    C130522  10.296  12.912  16.587
  227ETHO   H1130523  10.234  12.924  16.496
  227ETHO   H1330524  10.386  12.973  16.563
  227ETHO    C230525  10.224  12.975  16.703
  227ETHO   H2130526  10.286  12.967  16.795
  227ETHO   H2330527  10.134  12.919  16.735
  228ETHO    O130528  10.185  13.109  16.678
  228ETHO    C130529  10.113  13.172  16.776
  228ETHO   H1130530  10.143  13.129  16.874
  228ETHO   H1330531  10.150  13.276  16.785
  228ETHO    C230532   9.967  13.155  16.758
  228ETHO   H2130533   9.924  13.182  16.856
  228ETHO   H2330534   9.941  13.052  16.724
  229ETHO    O130535   9.915  13.241  16.664
  229ETHO    C130536   9.774  13.269  16.676
  229ETHO   H1130537   9.711  13.181  16.702
  229ETHO   H1330538   9.740  13.298  16.574
  229ETHO    C230539   9.739  13.388  16.760
  229ETHO   H2130540   9.633  13.418  16.740
  229ETHO   H2330541   9.797  13.481  16.747
  230ETHO    O130542   9.742  13.356  16.897
  230ETHO    C130543   9.716  13.468  16.979
  230ETHO   H1130544   9.795  13.541  16.953
  230ETHO   H1330545   9.621  13.511  16.942
  230ETHO    C230546   9.708  13.451  17.131
  230ETHO   H2130547   9.738  13.549  17.175
  230ETHO   H2330548   9.780  13.372  17.162
  231ETHO    O130549   9.581  13.410  17.179
  231ETHO    C130550   9.586  13.383  17.319
  231ETHO   H1130551   9.639  13.467  17.370
  231ETHO   H1330552   9.649  13.293  17.332
  231ETHO    C230553   9.445  13.363  17.387
  231ETHO   H2130554   9.381  13.451  17.369
  231ETHO   H2330555   9.460  13.354  17.497
  232ETHO    O130556   9.386  13.240  17.349
  232ETHO    C130557   9.337  13.233  17.213
  232ETHO   H1130558   9.310  13.337  17.183
  232ETHO   H1330559   9.424  13.208  17.149
  232ETHO    C230560   9.229  13.132  17.194
  232ETHO   H2130561   9.275  13.038  17.232
  232ETHO   H2330562   9.210  13.121  17.086
  233ETHO    O130563   9.111  13.182  17.264
  233ETHO    C130564   8.991  13.110  17.228
  233ETHO   H1130565   8.905  13.154  17.282
  233ETHO   H1330566   8.966  13.136  17.123
  233ETHO    C230567   9.009  12.955  17.244
  233ETHO   H2130568   9.086  12.918  17.173
  233ETHO   H2330569   8.917  12.896  17.223
  234ETHO    O130570   9.045  12.919  17.373
  234ETHO    C130571   9.111  12.794  17.383
  234ETHO   H1130572   9.048  12.718  17.333
  234ETHO   H1330573   9.210  12.813  17.336
  234ETHO    C230574   9.135  12.762  17.524
  234ETHO   H2130575   9.185  12.853  17.564
  234ETHO   H2330576   9.201  12.673  17.525
  235ETHO    O130577   9.007  12.745  17.590
  235ETHO    C130578   9.025  12.686  17.717
  235ETHO   H1130579   9.060  12.582  17.701
  235ETHO   H1330580   9.104  12.727  17.783
  235ETHO    C230581   8.886  12.681  17.785
  235ETHO   H2130582   8.910  12.613  17.869
  235ETHO   H2330583   8.829  12.644  17.697
  236ETHO    O130584   8.827  12.809  17.829
  236ETHO    C130585   8.688  12.801  17.842
  236ETHO   H1130586   8.652  12.719  17.907
  236ETHO   H1330587   8.652  12.780  17.739
  236ETHO    C230588   8.621  12.945  17.871
  236ETHO   H2130589   8.519  12.956  17.829
  236ETHO   H2330590   8.687  13.019  17.820
  237ETHO    O130591   8.618  12.975  18.009
  237ETHO    C130592   8.548  13.092  18.045
  237ETHO   H1130593   8.589  13.182  17.996
  237ETHO   H1330594   8.441  13.079  18.016
  237ETHO    C230595   8.557  13.106  18.193
  237ETHO   H2130596   8.533  13.210  18.223
  237ETHO   H2330597   8.663  13.091  18.221
  238ETHO    O130598   8.472  13.014  18.257
  238ETHO    C130599   8.452  13.055  18.396
  238ETHO   H1130600   8.383  13.143  18.391
  238ETHO   H1330601   8.548  13.089  18.440
  238ETHO    C230602   8.405  12.936  18.482
  238ETHO   H2130603   8.479  12.853  18.473
  238ETHO   H2330604   8.304  12.909  18.446
  239ETHO    O130605   8.392  12.959  18.624
  239ETHO    C130606   8.510  12.947  18.693
  239ETHO   H1130607   8.535  12.840  18.707
  239ETHO   H1330608   8.592  12.989  18.631
  239ETHO    C230609   8.528  13.022  18.826
  239ETHO   H2130610   8.626  12.996  18.870
  239ETHO   H2330611   8.525  13.131  18.805
  240ETHO    O130612   8.423  12.983  18.915
  240ETHO    C130613   8.428  13.064  19.031
  240ETHO   H1130614   8.432  13.172  19.007
  240ETHO   H1330615   8.509  13.031  19.100
  240ETHO    C230616   8.281  13.046  19.094
  240ETHO   H2130617   8.202  13.046  19.016
  240ETHO   H2330618   8.281  13.126  19.170
  241ETHO    O130619   8.279  12.915  19.156
  241ETHO    C130620   8.161  12.904  19.233
  241ETHO   H1130621   8.158  12.980  19.314
  241ETHO   H1330622   8.074  12.931  19.170
  241ETHO    C230623   8.155  12.762  19.289
  241ETHO   H2130624   8.245  12.732  19.346
  241ETHO   H2330625   8.134  12.691  19.207
  242ETHO    O130626   8.049  12.754  19.380
  242ETHO    C130627   8.077  12.668  19.488
  242ETHO   H1130628   8.139  12.579  19.461
  242ETHO   H1330629   7.986  12.640  19.547
  242ETHO    C230630   8.160  12.754  19.584
  242ETHO   H2130631   8.117  12.751  19.686
  242ETHO   H2330632   8.162  12.859  19.547
  243ETHO    O130633   8.287  12.695  19.610
  243ETHO    C130634   8.370  12.774  19.698
  243ETHO   H1130635   8.432  12.848  19.645
  243ETHO   H1330636   8.306  12.829  19.770
  243ETHO    C230637   8.452  12.680  19.786
  243ETHO   H2130638   8.505  12.739  19.863
  243ETHO   H2330639   8.525  12.633  19.717
  244ETHO    O130640   8.365  12.583  19.845
  244ETHO    C130641   8.451  12.478  19.893
  244ETHO   H1130642   8.524  12.515  19.968
  244ETHO   H1330643   8.504  12.443  19.802
  244ETHO    C230644   8.373  12.366  19.953
  244ETHO   H2130645   8.432  12.275  19.931
  244ETHO   H2330646   8.276  12.383  19.901
  245ETHO    O130647   8.366  12.395  20.094
  245ETHO    C130648   8.273  12.314  20.160
  245ETHO   H1130649   8.283  12.215  20.110
  245ETHO   H1330650   8.309  12.313  20.264
  245ETHO    C230651   8.137  12.368  20.150
  245ETHO   H2130652   8.111  12.354  20.043
  245ETHO   H2330653   8.129  12.478  20.169
  246ETHO    O130654   8.040  12.305  20.236
  246ETHO    C130655   7.910  12.362  20.213
  246ETHO   H1130656   7.879  12.334  20.110
  246ETHO   H1330657   7.941  12.468  20.223
  246ETHO    C230658   7.798  12.332  20.309
  246ETHO   H2130659   7.785  12.222  20.302
  246ETHO   H2330660   7.701  12.372  20.273
  247ETHO    O130661   7.841  12.369  20.439
  247ETHO    C130662   7.738  12.350  20.536
  247ETHO   H1130663   7.658  12.424  20.516
  247ETHO   H1330664   7.705  12.245  20.520
  247ETHO    C230665   7.801  12.354  20.679
  247ETHO   H2130666   7.850  12.452  20.698
  247ETHO   H2330667   7.716  12.341  20.749
  248ETHO    O130668   7.900  12.250  20.697
  248ETHO    C130669   7.872  12.165  20.803
  248ETHO   H1130670   7.770  12.130  20.777
  248ETHO   H1330671   7.943  12.081  20.784
  248ETHO    C230672   7.883  12.228  20.943
  248ETHO   H2130673   7.804  12.183  21.007
  248ETHO   H2330674   7.866  12.338  20.947
  249ETHO    O130675   8.012  12.197  20.996
  249ETHO    C130676   8.034  12.250  21.125
  249ETHO   H1130677   8.036  12.361  21.126
  249ETHO   H1330678   7.946  12.228  21.188
  249ETHO    C230679   8.154  12.196  21.186
  249ETHO   H2130680   8.197  12.273  21.253
  249ETHO   H2330681   8.233  12.171  21.112
  250ETHO    O130682   8.132  12.079  21.262
  250ETHO    C130683   8.247  12.005  21.296
  250ETHO   H1130684   8.209  11.913  21.346
  250ETHO   H1330685   8.314  11.979  21.211
  250ETHO    C230686   8.326  12.079  21.400
  250ETHO   H2130687   8.405  12.017  21.447
  250ETHO   H2330688   8.265  12.126  21.480
  251ETHO    O130689   8.402  12.188  21.349
  251ETHO    C130690   8.470  12.252  21.455
  251ETHO   H1130691   8.548  12.176  21.475
  251ETHO   H1330692   8.400  12.268  21.541
  251ETHO    C230693   8.530  12.388  21.411
  251ETHO   H2130694   8.594  12.369  21.323
  251ETHO   H2330695   8.588  12.415  21.502
  252ETHO    O130696   8.426  12.489  21.387
  252ETHO    C130697   8.377  12.469  21.256
  252ETHO   H1130698   8.407  12.368  21.221
  252ETHO   H1330699   8.267  12.482  21.258
  252ETHO    C230700   8.444  12.560  21.150
  252ETHO   H2130701   8.395  12.541  21.052
  252ETHO   H2330702   8.551  12.532  21.135
  253ETHO    O130703   8.433  12.699  21.186
  253ETHO    C130704   8.493  12.774  21.088
  253ETHO   H1130705   8.592  12.737  21.056
  253ETHO   H1330706   8.516  12.874  21.131
  253ETHO    C230707   8.413  12.801  20.955
  253ETHO   H2130708   8.388  12.702  20.910
  253ETHO   H2330709   8.486  12.849  20.886
  254ETHO    O130710   8.296  12.884  20.971
  254ETHO    C130711   8.227  12.899  20.851
  254ETHO   H1130712   8.309  12.913  20.776
  254ETHO   H1330713   8.173  12.804  20.833
  254ETHO    C230714   8.132  13.017  20.851
  254ETHO   H2130715   8.062  13.012  20.937
  254ETHO   H2330716   8.062  13.012  20.764
  255ETHO    O130717   8.213  13.138  20.848
  255ETHO    C130718   8.259  13.173  20.720
  255ETHO   H1130719   8.169  13.187  20.656
  255ETHO   H1330720   8.314  13.092  20.669
  255ETHO    C230721   8.330  13.309  20.707
  255ETHO   H2130722   8.293  13.363  20.797
  255ETHO   H2330723   8.297  13.372  20.622
  256ETHO    O130724   8.468  13.289  20.719
  256ETHO    C130725   8.537  13.411  20.707
  256ETHO   H1130726   8.465  13.478  20.655
  256ETHO   H1330727   8.557  13.456  20.807
  256ETHO    C230728   8.671  13.398  20.633
  256ETHO   H2130729   8.733  13.334  20.699
  256ETHO   H2330730   8.704  13.504  20.630
  257ETHO    O130731   8.666  13.341  20.505
  257ETHO    C130732   8.796  13.338  20.434
  257ETHO   H1130733   8.864  13.425  20.452
  257ETHO   H1330734   8.770  13.334  20.326
  257ETHO    C230735   8.876  13.210  20.463
  257ETHO   H2130736   8.899  13.212  20.571
  257ETHO   H2330737   8.971  13.208  20.406
  258ETHO    O130738   8.826  13.085  20.419
  258ETHO    C130739   8.870  12.978  20.503
  258ETHO   H1130740   8.910  12.900  20.434
  258ETHO   H1330741   8.968  12.998  20.551
  258ETHO    C230742   8.781  12.935  20.615
  258ETHO   H2130743   8.770  13.014  20.692
  258ETHO   H2330744   8.829  12.845  20.657
  259ETHO    O130745   8.648  12.885  20.577
  259ETHO    C130746   8.554  12.992  20.568
  259ETHO   H1130747   8.510  13.025  20.664
  259ETHO   H1330748   8.611  13.077  20.524
  259ETHO    C230749   8.435  12.950  20.477
  259ETHO   H2130750   8.471  12.894  20.388
  259ETHO   H2330751   8.372  13.036  20.445
  260ETHO    O130752   8.334  12.872  20.535
  260ETHO    C130753   8.227  12.855  20.449
  260ETHO   H1130754   8.166  12.945  20.425
  260ETHO   H1330755   8.263  12.816  20.352
  260ETHO    C230756   8.122  12.757  20.509
  260ETHO   H2130757   8.189  12.675  20.541
  260ETHO   H2330758   8.049  12.716  20.435
  261ETHO    O130759   8.051  12.815  20.615
  261ETHO    C130760   7.933  12.750  20.648
  261ETHO   H1130761   7.948  12.640  20.660
  261ETHO   H1330762   7.917  12.788  20.751
  261ETHO    C230763   7.802  12.764  20.562
  261ETHO   H2130764   7.732  12.682  20.585
  261ETHO   H2330765   7.836  12.765  20.456
  262ETHO    O130766   7.727  12.872  20.604
  262ETHO    C130767   7.614  12.889  20.521
  262ETHO   H1130768   7.548  12.808  20.561
  262ETHO   H1330769   7.642  12.873  20.415
  262ETHO    C230770   7.554  13.029  20.544
  262ETHO   H2130771   7.465  13.036  20.477
  262ETHO   H2330772   7.634  13.098  20.508
  263ETHO    O130773   7.510  13.059  20.675
  263ETHO    C130774   7.384  12.991  20.715
  263ETHO   H1130775   7.404  12.883  20.702
  263ETHO   H1330776   7.297  13.024  20.654
  263ETHO    C230777   7.336  13.018  20.863
  263ETHO   H2130778   7.244  12.958  20.880
  263ETHO   H2330779   7.318  13.126  20.879
  264ETHO    O130780   7.435  12.964  20.953
  264ETHO    C130781   7.411  13.016  21.083
  264ETHO   H1130782   7.307  12.987  21.110
  264ETHO   H1330783   7.412  13.127  21.071
  264ETHO    C230784   7.505  12.978  21.188
  264ETHO   H2130785   7.503  13.049  21.273
  264ETHO   H2330786   7.608  12.992  21.148
  265ETHO    O130787   7.474  12.841  21.227
  265ETHO    C130788   7.384  12.835  21.337
  265ETHO   H1130789   7.434  12.873  21.429
  265ETHO   H1330790   7.299  12.901  21.312
  265ETHO    C230791   7.334  12.695  21.365
  265ETHO   H2130792   7.277  12.695  21.461
  265ETHO   H2330793   7.414  12.624  21.395
  265ETHO    OZ30794   7.250  12.643  21.258
  265ETHO   HZ130795   7.164  12.653  21.301
    1ETHO    O130796  11.798  11.413   1.704
    1ETHO   HO130797  11.788  11.464   1.784
    1ETHO    C130798  11.941  11.387   1.697
    1ETHO   H1130799  11.999  11.366   1.789
    1ETHO   H1330800  11.988  11.482   1.664
    1ETHO    C230801  11.982  11.280   1.595
    1ETHO   H2130802  12.089  11.292   1.571
    1ETHO   H2330803  11.928  11.301   1.500
    2ETHO    O130804  11.969  11.149   1.648
    2ETHO    C130805  11.998  11.056   1.541
    2ETHO   H1130806  11.922  11.073   1.462
    2ETHO   H1330807  12.098  11.076   1.497
    2ETHO    C230808  11.989  10.910   1.580
    2ETHO   H2130809  12.048  10.889   1.671
    2ETHO   H2330810  12.037  10.865   1.490
    3ETHO    O130811  11.852  10.879   1.578
    3ETHO    C130812  11.832  10.741   1.611
    3ETHO   H1130813  11.880  10.711   1.706
    3ETHO   H1330814  11.874  10.674   1.533
    3ETHO    C230815  11.687  10.706   1.613
    3ETHO   H2130816  11.672  10.599   1.635
    3ETHO   H2330817  11.638  10.720   1.514
    4ETHO    O130818  11.612  10.782   1.705
    4ETHO    C130819  11.477  10.741   1.719
    4ETHO   H1130820  11.429  10.714   1.623
    4ETHO   H1330821  11.479  10.653   1.786
    4ETHO    C230822  11.389  10.852   1.790
    4ETHO   H2130823  11.425  10.869   1.893
    4ETHO   H2330824  11.285  10.811   1.793
    5ETHO    O130825  11.392  10.979   1.725
    5ETHO    C130826  11.260  11.039   1.728
    5ETHO   H1130827  11.193  10.991   1.653
    5ETHO   H1330828  11.218  11.006   1.825
    5ETHO    C230829  11.261  11.194   1.714
    5ETHO   H2130830  11.157  11.211   1.678
    5ETHO   H2330831  11.332  11.217   1.632
    6ETHO    O130832  11.269  11.274   1.832
    6ETHO    C130833  11.405  11.279   1.886
    6ETHO   H1130834  11.444  11.181   1.920
    6ETHO   H1330835  11.466  11.315   1.801
    6ETHO    C230836  11.434  11.372   2.013
    6ETHO   H2130837  11.534  11.353   2.057
    6ETHO   H2330838  11.351  11.347   2.082
    7ETHO    O130839  11.428  11.511   1.988
    7ETHO    C130840  11.464  11.590   2.104
    7ETHO   H1130841  11.554  11.536   2.141
    7ETHO   H1330842  11.506  11.688   2.073
    7ETHO    C230843  11.349  11.617   2.198
    7ETHO   H2130844  11.404  11.662   2.283
    7ETHO   H2330845  11.298  11.526   2.236
    8ETHO    O130846  11.252  11.706   2.140
    8ETHO    C130847  11.169  11.765   2.245
    8ETHO   H1130848  11.242  11.820   2.308
    8ETHO   H1330849  11.126  11.682   2.305
    8ETHO    C230850  11.064  11.869   2.194
    8ETHO   H2130851  10.962  11.852   2.236
    8ETHO   H2330852  11.055  11.856   2.084
    9ETHO    O130853  11.122  11.998   2.210
    9ETHO    C130854  11.053  12.074   2.309
    9ETHO   H1130855  11.081  12.179   2.286
    9ETHO   H1330856  10.943  12.070   2.297
    9ETHO    C230857  11.094  12.023   2.446
    9ETHO   H2130858  11.064  11.916   2.449
    9ETHO   H2330859  11.040  12.067   2.533
   10ETHO    O130860  11.233  12.035   2.466
   10ETHO    C130861  11.274  12.168   2.502
   10ETHO   H1130862  11.184  12.231   2.516
   10ETHO   H1330863  11.312  12.215   2.409
   10ETHO    C230864  11.382  12.161   2.609
   10ETHO   H2130865  11.450  12.248   2.600
   10ETHO   H2330866  11.455  12.078   2.596
   11ETHO    O130867  11.328  12.165   2.740
   11ETHO    C130868  11.428  12.130   2.831
   11ETHO   H1130869  11.428  12.021   2.852
   11ETHO   H1330870  11.535  12.151   2.809
   11ETHO    C230871  11.380  12.201   2.965
   11ETHO   H2130872  11.391  12.309   2.944
   11ETHO   H2330873  11.270  12.188   2.978
   12ETHO    O130874  11.463  12.183   3.074
   12ETHO    C130875  11.407  12.255   3.190
   12ETHO   H1130876  11.297  12.259   3.178
   12ETHO   H1330877  11.451  12.356   3.205
   12ETHO    C230878  11.410  12.167   3.315
   12ETHO   H2130879  11.398  12.060   3.290
   12ETHO   H2330880  11.335  12.192   3.394
   13ETHO    O130881  11.538  12.179   3.394
   13ETHO    C130882  11.655  12.157   3.316
   13ETHO   H1130883  11.625  12.087   3.236
   13ETHO   H1330884  11.699  12.249   3.270
   13ETHO    C230885  11.769  12.118   3.410
   13ETHO   H2130886  11.786  12.199   3.484
   13ETHO   H2330887  11.861  12.121   3.349
   14ETHO    O130888  11.742  11.996   3.473
   14ETHO    C130889  11.778  12.005   3.615
   14ETHO   H1130890  11.706  12.071   3.667
   14ETHO   H1330891  11.871  12.065   3.615
   14ETHO    C230892  11.798  11.872   3.685
   14ETHO   H2130893  11.696  11.846   3.720
   14ETHO   H2330894  11.856  11.896   3.777
   15ETHO    O130895  11.859  11.768   3.602
   15ETHO    C130896  11.829  11.634   3.656
   15ETHO   H1130897  11.870  11.621   3.758
   15ETHO   H1330898  11.718  11.626   3.664
   15ETHO    C230899  11.880  11.527   3.561
   15ETHO   H2130900  11.991  11.532   3.573
   15ETHO   H2330901  11.846  11.432   3.605
   16ETHO    O130902  11.832  11.537   3.432
   16ETHO    C130903  11.913  11.459   3.340
   16ETHO   H1130904  12.017  11.499   3.340
   16ETHO   H1330905  11.916  11.351   3.366
   16ETHO    C230906  11.854  11.469   3.199
   16ETHO   H2130907  11.927  11.420   3.130
   16ETHO   H2330908  11.852  11.579   3.183
   17ETHO    O130909  11.730  11.408   3.191
   17ETHO    C130910  11.681  11.418   3.056
   17ETHO   H1130911  11.655  11.525   3.046
   17ETHO   H1330912  11.760  11.402   2.980
   17ETHO    C230913  11.575  11.314   3.022
   17ETHO   H2130914  11.608  11.210   3.043
   17ETHO   H2330915  11.561  11.326   2.913
   18ETHO    O130916  11.450  11.325   3.090
   18ETHO    C130917  11.365  11.423   3.027
   18ETHO   H1130918  11.416  11.521   3.013
   18ETHO   H1330919  11.326  11.392   2.928
   18ETHO    C230920  11.228  11.435   3.107
   18ETHO   H2130921  11.250  11.485   3.204
   18ETHO   H2330922  11.184  11.336   3.130
   19ETHO    O130923  11.140  11.496   3.016
   19ETHO    C130924  11.016  11.524   3.081
   19ETHO   H1130925  11.026  11.610   3.152
   19ETHO   H1330926  10.994  11.439   3.149
   19ETHO    C230927  10.902  11.560   2.992
   19ETHO   H2130928  10.937  11.631   2.913
   19ETHO   H2330929  10.816  11.611   3.040
   20ETHO    O130930  10.853  11.438   2.936
   20ETHO    C130931  10.758  11.466   2.828
   20ETHO   H1130932  10.688  11.544   2.866
   20ETHO   H1330933  10.823  11.502   2.745
   20ETHO    C230934  10.674  11.344   2.778
   20ETHO   H2130935  10.740  11.256   2.763
   20ETHO   H2330936  10.634  11.374   2.679
   21ETHO    O130937  10.570  11.319   2.865
   21ETHO    C130938  10.510  11.190   2.834
   21ETHO   H1130939  10.580  11.104   2.843
   21ETHO   H1330940  10.466  11.193   2.731
   21ETHO    C230941  10.391  11.168   2.927
   21ETHO   H2130942  10.334  11.084   2.882
   21ETHO   H2330943  10.315  11.248   2.915
   22ETHO    O130944  10.433  11.147   3.058
   22ETHO    C130945  10.328  11.161   3.147
   22ETHO   H1130946  10.267  11.254   3.143
   22ETHO   H1330947  10.265  11.070   3.141
   22ETHO    C230948  10.389  11.156   3.282
   22ETHO   H2130949  10.301  11.141   3.348
   22ETHO   H2330950  10.442  11.060   3.298
   23ETHO    O130951  10.465  11.262   3.339
   23ETHO    C130952  10.388  11.374   3.366
   23ETHO   H1130953  10.289  11.370   3.315
   23ETHO   H1330954  10.441  11.464   3.329
   23ETHO    C230955  10.349  11.387   3.513
   23ETHO   H2130956  10.301  11.294   3.547
   23ETHO   H2330957  10.287  11.477   3.533
   24ETHO    O130958  10.469  11.419   3.588
   24ETHO    C130959  10.453  11.431   3.723
   24ETHO   H1130960  10.405  11.529   3.744
   24ETHO   H1330961  10.383  11.356   3.766
   24ETHO    C230962  10.582  11.428   3.809
   24ETHO   H2130963  10.640  11.336   3.784
   24ETHO   H2330964  10.564  11.404   3.916
   25ETHO    O130965  10.667  11.537   3.791
   25ETHO    C130966  10.784  11.522   3.857
   25ETHO   H1130967  10.835  11.425   3.837
   25ETHO   H1330968  10.755  11.522   3.964
   25ETHO    C230969  10.874  11.642   3.837
   25ETHO   H2130970  10.875  11.675   3.731
   25ETHO   H2330971  10.977  11.602   3.844
   26ETHO    O130972  10.864  11.745   3.933
   26ETHO    C130973  10.959  11.854   3.901
   26ETHO   H1130974  11.016  11.891   3.990
   26ETHO   H1330975  11.037  11.817   3.832
   26ETHO    C230976  10.891  11.965   3.827
   26ETHO   H2130977  10.972  12.027   3.782
   26ETHO   H2330978  10.812  12.013   3.888
   27ETHO    O130979  10.826  11.921   3.703
   27ETHO    C130980  10.751  12.027   3.650
   27ETHO   H1130981  10.806  12.097   3.584
   27ETHO   H1330982  10.723  12.091   3.737
   27ETHO    C230983  10.618  11.963   3.582
   27ETHO   H2130984  10.667  11.898   3.506
   27ETHO   H2330985  10.550  12.028   3.523
   28ETHO    O130986  10.535  11.904   3.682
   28ETHO    C130987  10.427  11.832   3.629
   28ETHO   H1130988  10.460  11.775   3.540
   28ETHO   H1330989  10.390  11.755   3.700
   28ETHO    C230990  10.308  11.933   3.594
   28ETHO   H2130991  10.262  11.873   3.513
   28ETHO   H2330992  10.344  12.029   3.552
   29ETHO    O130993  10.219  11.952   3.704
   29ETHO    C130994  10.141  12.070   3.694
   29ETHO   H1130995  10.212  12.150   3.663
   29ETHO   H1330996  10.102  12.092   3.795
   29ETHO    C230997  10.021  12.044   3.599
   29ETHO   H2130998   9.949  12.128   3.605
   29ETHO   H2330999   9.963  11.957   3.635
   30ETHO    O131000  10.054  12.021   3.460
   30ETHO    C131001   9.954  11.942   3.396
   30ETHO   H1131002   9.955  11.836   3.430
   30ETHO   H1331003   9.856  11.982   3.431
   30ETHO    C231004   9.964  11.951   3.248
   30ETHO   H2131005   9.997  12.044   3.197
   30ETHO   H2331006   9.860  11.931   3.214
   31ETHO    O131007  10.045  11.842   3.205
   31ETHO    C131008  10.016  11.819   3.066
   31ETHO   H1131009   9.911  11.786   3.048
   31ETHO   H1331010  10.039  11.906   3.000
   31ETHO    C231011  10.083  11.702   2.990
   31ETHO   H2131012  10.040  11.699   2.888
   31ETHO   H2331013  10.066  11.605   3.042
   32ETHO    O131014  10.223  11.723   2.981
   32ETHO    C131015  10.288  11.605   2.933
   32ETHO   H1131016  10.230  11.563   2.848
   32ETHO   H1331017  10.383  11.640   2.888
   32ETHO    C231018  10.336  11.514   3.040
   32ETHO   H2131019  10.400  11.434   2.997
   32ETHO   H2331020  10.252  11.472   3.099
   33ETHO    O131021  10.405  11.584   3.143
   33ETHO    C131022  10.533  11.630   3.111
   33ETHO   H1131023  10.598  11.540   3.107
   33ETHO   H1331024  10.534  11.685   3.015
   33ETHO    C231025  10.585  11.731   3.215
   33ETHO   H2131026  10.693  11.746   3.194
   33ETHO   H2331027  10.572  11.688   3.316
   34ETHO    O131028  10.545  11.868   3.218
   34ETHO    C131029  10.408  11.888   3.259
   34ETHO   H1131030  10.385  11.830   3.351
   34ETHO   H1331031  10.357  11.829   3.179
   34ETHO    C231032  10.347  12.024   3.251
   34ETHO   H2131033  10.244  11.999   3.285
   34ETHO   H2331034  10.351  12.062   3.147
   35ETHO    O131035  10.424  12.104   3.336
   35ETHO    C131036  10.387  12.241   3.353
   35ETHO   H1131037  10.427  12.270   3.452
   35ETHO   H1331038  10.440  12.294   3.270
   35ETHO    C231039  10.238  12.279   3.337
   35ETHO   H2131040  10.218  12.377   3.385
   35ETHO   H2331041  10.189  12.215   3.413
   36ETHO    O131042  10.167  12.283   3.213
   36ETHO    C131043  10.036  12.335   3.241
   36ETHO   H1131044  10.040  12.442   3.268
   36ETHO   H1331045  10.002  12.282   3.333
   36ETHO    C231046   9.932  12.323   3.130
   36ETHO   H2131047   9.828  12.326   3.171
   36ETHO   H2331048   9.942  12.225   3.079
   37ETHO    O131049   9.926  12.428   3.034
   37ETHO    C131050   9.813  12.418   2.943
   37ETHO   H1131051   9.831  12.337   2.869
   37ETHO   H1331052   9.718  12.387   2.993
   37ETHO    C231053   9.793  12.562   2.879
   37ETHO   H2131054   9.782  12.630   2.967
   37ETHO   H2331055   9.706  12.552   2.811
   38ETHO    O131056   9.910  12.607   2.810
   38ETHO    C131057   9.927  12.745   2.828
   38ETHO   H1131058   9.911  12.772   2.934
   38ETHO   H1331059   9.844  12.791   2.771
   38ETHO    C231060  10.064  12.791   2.789
   38ETHO   H2131061  10.066  12.898   2.760
   38ETHO   H2331062  10.097  12.738   2.697
   39ETHO    O131063  10.157  12.776   2.890
   39ETHO    C131064  10.285  12.772   2.833
   39ETHO   H1131065  10.278  12.694   2.754
   39ETHO   H1331066  10.300  12.868   2.779
   39ETHO    C231067  10.416  12.736   2.913
   39ETHO   H2131068  10.495  12.696   2.846
   39ETHO   H2331069  10.395  12.656   2.987
   40ETHO    O131070  10.458  12.852   2.983
   40ETHO    C131071  10.350  12.893   3.067
   40ETHO   H1131072  10.283  12.811   3.102
   40ETHO   H1331073  10.292  12.967   3.007
   40ETHO    C231074  10.416  12.969   3.176
   40ETHO   H2131075  10.490  12.906   3.229
   40ETHO   H2331076  10.334  13.020   3.232
   41ETHO    O131077  10.494  13.079   3.130
   41ETHO    C131078  10.531  13.163   3.240
   41ETHO   H1131079  10.593  13.251   3.214
   41ETHO   H1331080  10.440  13.199   3.294
   41ETHO    C231081  10.615  13.101   3.354
   41ETHO   H2131082  10.584  13.001   3.391
   41ETHO   H2331083  10.614  13.162   3.447
   42ETHO    O131084  10.756  13.099   3.334
   42ETHO    C131085  10.793  13.015   3.227
   42ETHO   H1131086  10.707  12.988   3.163
   42ETHO   H1331087  10.846  13.079   3.153
   42ETHO    C231088  10.875  12.889   3.250
   42ETHO   H2131089  10.888  12.837   3.153
   42ETHO   H2331090  10.821  12.830   3.327
   43ETHO    O131091  11.010  12.912   3.285
   43ETHO    C131092  11.020  12.919   3.431
   43ETHO   H1131093  10.937  12.982   3.470
   43ETHO   H1331094  11.016  12.812   3.463
   43ETHO    C231095  11.160  12.968   3.470
   43ETHO   H2131096  11.161  12.994   3.578
   43ETHO   H2331097  11.174  13.069   3.423
   44ETHO    O131098  11.259  12.870   3.444
   44ETHO    C131099  11.381  12.933   3.423
   44ETHO   H1131100  11.363  13.019   3.355
   44ETHO   H1331101  11.438  12.966   3.513
   44ETHO    C231102  11.464  12.833   3.342
   44ETHO   H2131103  11.546  12.887   3.290
   44ETHO   H2331104  11.398  12.793   3.262
   45ETHO    O131105  11.503  12.726   3.432
   45ETHO    C131106  11.558  12.612   3.370
   45ETHO   H1131107  11.640  12.631   3.298
   45ETHO   H1331108  11.472  12.558   3.326
   45ETHO    C231109  11.615  12.521   3.481
   45ETHO   H2131110  11.704  12.575   3.521
   45ETHO   H2331111  11.655  12.430   3.432
   46ETHO    O131112  11.536  12.478   3.594
   46ETHO    C131113  11.610  12.435   3.701
   46ETHO   H1131114  11.688  12.364   3.666
   46ETHO   H1331115  11.664  12.522   3.746
   46ETHO    C231116  11.513  12.371   3.806
   46ETHO   H2131117  11.579  12.321   3.880
   46ETHO   H2331118  11.442  12.290   3.780
   47ETHO    O131119  11.431  12.467   3.865
   47ETHO    C131120  11.391  12.411   3.987
   47ETHO   H1131121  11.473  12.385   4.058
   47ETHO   H1331122  11.335  12.317   3.967
   47ETHO    C231123  11.292  12.504   4.065
   47ETHO   H2131124  11.229  12.437   4.128
   47ETHO   H2331125  11.223  12.559   3.998
   48ETHO    O131126  11.351  12.599   4.153
   48ETHO    C131127  11.406  12.705   4.080
   48ETHO   H1131128  11.512  12.676   4.061
   48ETHO   H1331129  11.353  12.735   3.988
   48ETHO    C231130  11.416  12.834   4.173
   48ETHO   H2131131  11.467  12.794   4.263
   48ETHO   H2331132  11.481  12.912   4.128
   49ETHO    O131133  11.290  12.889   4.198
   49ETHO    C131134  11.292  12.991   4.297
   49ETHO   H1131135  11.380  13.059   4.290
   49ETHO   H1331136  11.308  12.936   4.392
   49ETHO    C231137  11.165  13.069   4.287
   49ETHO   H2131138  11.166  13.137   4.375
   49ETHO   H2331139  11.077  13.001   4.295
   50ETHO    O131140  11.169  13.146   4.175
   50ETHO    C131141  11.065  13.248   4.168
   50ETHO   H1131142  10.965  13.201   4.180
   50ETHO   H1331143  11.083  13.331   4.240
   50ETHO    C231144  11.058  13.305   4.028
   50ETHO   H2131145  11.161  13.332   3.994
   50ETHO   H2331146  11.002  13.401   4.032
   51ETHO    O131147  10.987  13.217   3.945
   51ETHO    C131148  10.960  13.268   3.817
   51ETHO   H1131149  11.048  13.324   3.778
   51ETHO   H1331150  10.877  13.341   3.825
   51ETHO    C231151  10.917  13.157   3.715
   51ETHO   H2131152  10.999  13.085   3.693
   51ETHO   H2331153  10.886  13.210   3.623
   52ETHO    O131154  10.803  13.088   3.770
   52ETHO    C131155  10.766  12.976   3.689
   52ETHO   H1131156  10.738  13.008   3.587
   52ETHO   H1331157  10.859  12.916   3.682
   52ETHO    C231158  10.658  12.883   3.748
   52ETHO   H2131159  10.663  12.908   3.856
   52ETHO   H2331160  10.692  12.779   3.732
   53ETHO    O131161  10.527  12.915   3.712
   53ETHO    C131162  10.440  12.817   3.759
   53ETHO   H1131163  10.467  12.726   3.702
   53ETHO   H1331164  10.449  12.800   3.869
   53ETHO    C231165  10.299  12.847   3.710
   53ETHO   H2131166  10.242  12.753   3.700
   53ETHO   H2331167  10.292  12.889   3.607
   54ETHO    O131168  10.230  12.930   3.800
   54ETHO    C131169  10.092  12.942   3.761
   54ETHO   H1131170  10.051  12.849   3.716
   54ETHO   H1331171  10.033  12.958   3.854
   54ETHO    C231172  10.068  13.068   3.678
   54ETHO   H2131173   9.957  13.069   3.668
   54ETHO   H2331174  10.114  13.049   3.579
   55ETHO    O131175  10.114  13.187   3.731
   55ETHO    C131176  10.112  13.291   3.638
   55ETHO   H1131177  10.185  13.276   3.556
   55ETHO   H1331178  10.004  13.299   3.615
   55ETHO    C231179  10.159  13.417   3.709
   55ETHO   H2131180  10.081  13.477   3.760
   55ETHO   H2331181  10.229  13.379   3.786
   56ETHO    O131182  10.233  13.502   3.625
   56ETHO    C131183  10.245  13.627   3.697
   56ETHO   H1131184  10.290  13.610   3.797
   56ETHO   H1331185  10.148  13.680   3.707
   56ETHO    C231186  10.357  13.711   3.629
   56ETHO   H2131187  10.348  13.815   3.668
   56ETHO   H2331188  10.334  13.713   3.520
   57ETHO    O131189  10.497  13.676   3.642
   57ETHO    C131190  10.591  13.765   3.591
   57ETHO   H1131191  10.558  13.775   3.485
   57ETHO   H1331192  10.575  13.861   3.645
   57ETHO    C231193  10.738  13.737   3.592
   57ETHO   H2131194  10.771  13.714   3.695
   57ETHO   H2331195  10.800  13.824   3.561
   58ETHO    O131196  10.773  13.620   3.510
   58ETHO    C131197  10.912  13.594   3.506
   58ETHO   H1131198  10.944  13.582   3.611
   58ETHO   H1331199  10.961  13.684   3.464
   58ETHO    C231200  10.949  13.457   3.447
   58ETHO   H2131201  10.860  13.393   3.467
   58ETHO   H2331202  11.046  13.436   3.496
   59ETHO    O131203  10.975  13.480   3.315
   59ETHO    C131204  11.012  13.361   3.244
   59ETHO   H1131205  11.071  13.295   3.311
   59ETHO   H1331206  10.921  13.301   3.222
   59ETHO    C231207  11.089  13.388   3.120
   59ETHO   H2131208  11.133  13.298   3.071
   59ETHO   H2331209  11.173  13.458   3.141
   60ETHO    O131210  11.009  13.439   3.010
   60ETHO    C131211  10.941  13.338   2.943
   60ETHO   H1131212  10.872  13.269   2.996
   60ETHO   H1331213  11.014  13.267   2.900
   60ETHO    C231214  10.856  13.408   2.838
   60ETHO   H2131215  10.794  13.484   2.891
   60ETHO   H2331216  10.782  13.337   2.794
   61ETHO    O131217  10.928  13.465   2.727
   61ETHO    C131218  10.836  13.499   2.628
   61ETHO   H1131219  10.786  13.405   2.594
   61ETHO   H1331220  10.761  13.564   2.677
   61ETHO    C231221  10.897  13.563   2.509
   61ETHO   H2131222  10.981  13.503   2.467
   61ETHO   H2331223  10.942  13.662   2.531
   62ETHO    O131224  10.789  13.598   2.424
   62ETHO    C131225  10.825  13.671   2.307
   62ETHO   H1131226  10.903  13.618   2.248
   62ETHO   H1331227  10.874  13.767   2.333
   62ETHO    C231228  10.702  13.708   2.227
   62ETHO   H2131229  10.728  13.778   2.146
   62ETHO   H2331230  10.631  13.763   2.293
   63ETHO    O131231  10.631  13.591   2.181
   63ETHO    C131232  10.701  13.528   2.077
   63ETHO   H1131233  10.727  13.592   1.990
   63ETHO   H1331234  10.802  13.488   2.102
   63ETHO    C231235  10.621  13.408   2.034
   63ETHO   H2131236  10.613  13.332   2.115
   63ETHO   H2331237  10.673  13.360   1.948
   64ETHO    O131238  10.492  13.443   1.980
   64ETHO    C131239  10.388  13.351   2.006
   64ETHO   H1131240  10.379  13.323   2.113
   64ETHO   H1331241  10.408  13.259   1.947
   64ETHO    C231242  10.253  13.400   1.950
   64ETHO   H2131243  10.249  13.390   1.839
   64ETHO   H2331244  10.242  13.506   1.981
   65ETHO    O131245  10.151  13.327   2.022
   65ETHO    C131246  10.033  13.311   1.949
   65ETHO   H1131247  10.005  13.415   1.923
   65ETHO   H1331248  10.056  13.244   1.863
   65ETHO    C231249   9.920  13.253   2.030
   65ETHO   H2131250   9.832  13.245   1.963
   65ETHO   H2331251   9.880  13.313   2.114
   66ETHO    O131252   9.958  13.126   2.073
   66ETHO    C131253   9.852  13.036   2.059
   66ETHO   H1131254   9.806  13.035   1.959
   66ETHO   H1331255   9.775  13.065   2.134
   66ETHO    C231256   9.896  12.888   2.083
   66ETHO   H2131257   9.802  12.829   2.091
   66ETHO   H2331258   9.945  12.883   2.183
   67ETHO    O131259   9.986  12.822   1.998
   67ETHO    C131260   9.956  12.826   1.863
   67ETHO   H1131261   9.855  12.789   1.838
   67ETHO   H1331262   9.972  12.929   1.823
   67ETHO    C231263  10.039  12.720   1.791
   67ETHO   H2131264  10.146  12.744   1.809
   67ETHO   H2331265  10.028  12.732   1.681
   68ETHO    O131266  10.001  12.588   1.824
   68ETHO    C131267  10.096  12.490   1.778
   68ETHO   H1131268  10.041  12.412   1.721
   68ETHO   H1331269  10.183  12.531   1.722
   68ETHO    C231270  10.148  12.395   1.890
   68ETHO   H2131271  10.202  12.313   1.838
   68ETHO   H2331272  10.059  12.350   1.940
   69ETHO    O131273  10.242  12.455   1.977
   69ETHO    C131274  10.243  12.397   2.103
   69ETHO   H1131275  10.167  12.440   2.171
   69ETHO   H1331276  10.254  12.287   2.095
   69ETHO    C231277  10.377  12.446   2.158
   69ETHO   H2131278  10.453  12.434   2.078
   69ETHO   H2331279  10.409  12.386   2.246
   70ETHO    O131280  10.376  12.583   2.197
   70ETHO    C131281  10.504  12.627   2.248
   70ETHO   H1131282  10.543  12.560   2.328
   70ETHO   H1331283  10.573  12.634   2.161
   70ETHO    C231284  10.494  12.767   2.312
   70ETHO   H2131285  10.583  12.781   2.377
   70ETHO   H2331286  10.401  12.785   2.369
   71ETHO    O131287  10.499  12.864   2.213
   71ETHO    C131288  10.455  12.993   2.251
   71ETHO   H1131289  10.359  12.983   2.306
   71ETHO   H1331290  10.424  13.050   2.160
   71ETHO    C231291  10.558  13.082   2.320
   71ETHO   H2131292  10.580  13.062   2.427
   71ETHO   H2331293  10.518  13.185   2.326
   72ETHO    O131294  10.677  13.083   2.248
   72ETHO    C131295  10.783  13.159   2.315
   72ETHO   H1131296  10.742  13.260   2.334
   72ETHO   H1331297  10.814  13.110   2.410
   72ETHO    C231298  10.899  13.183   2.225
   72ETHO   H2131299  10.946  13.085   2.202
   72ETHO   H2331300  10.971  13.244   2.284
   73ETHO    O131301  10.853  13.246   2.107
   73ETHO    C131302  10.935  13.227   1.995
   73ETHO   H1131303  10.866  13.247   1.910
   73ETHO   H1331304  10.963  13.120   1.992
   73ETHO    C231305  11.054  13.314   2.019
   73ETHO   H2131306  11.130  13.290   1.941
   73ETHO   H2331307  11.102  13.300   2.118
   74ETHO    O131308  11.031  13.455   1.995
   74ETHO    C131309  11.135  13.529   2.059
   74ETHO   H1131310  11.119  13.534   2.169
   74ETHO   H1331311  11.233  13.482   2.041
   74ETHO    C231312  11.147  13.671   2.000
   74ETHO   H2131313  11.108  13.684   1.897
   74ETHO   H2331314  11.256  13.695   1.997
   75ETHO    O131315  11.081  13.774   2.083
   75ETHO    C131316  11.071  13.898   2.022
   75ETHO   H1131317  11.005  13.894   1.933
   75ETHO   H1331318  11.170  13.942   1.994
   75ETHO    C231319  11.001  13.998   2.109
   75ETHO   H2131320  11.047  13.989   2.210
   75ETHO   H2331321  10.895  13.966   2.114
   76ETHO    O131322  11.028  14.123   2.054
   76ETHO    C131323  11.012  14.225   2.148
   76ETHO   H1131324  10.973  14.312   2.090
   76ETHO   H1331325  10.927  14.192   2.212
   76ETHO    C231326  11.145  14.252   2.230
   76ETHO   H2131327  11.176  14.155   2.274
   76ETHO   H2331328  11.108  14.322   2.307
   77ETHO    O131329  11.252  14.306   2.154
   77ETHO    C131330  11.382  14.257   2.196
   77ETHO   H1131331  11.377  14.213   2.298
   77ETHO   H1331332  11.453  14.342   2.209
   77ETHO    C231333  11.453  14.161   2.106
   77ETHO   H2131334  11.564  14.174   2.104
   77ETHO   H2331335  11.420  14.188   2.003
   78ETHO    O131336  11.422  14.021   2.139
   78ETHO    C131337  11.473  13.928   2.043
   78ETHO   H1131338  11.405  13.841   2.028
   78ETHO   H1331339  11.485  13.978   1.945
   78ETHO    C231340  11.619  13.882   2.087
   78ETHO   H2131341  11.673  13.969   2.130
   78ETHO   H2331342  11.666  13.864   1.988
   79ETHO    O131343  11.616  13.762   2.169
   79ETHO    C131344  11.613  13.642   2.094
   79ETHO   H1131345  11.517  13.645   2.036
   79ETHO   H1331346  11.701  13.638   2.026
   79ETHO    C231347  11.591  13.528   2.201
   79ETHO   H2131348  11.655  13.536   2.291
   79ETHO   H2331349  11.612  13.429   2.156
   80ETHO    O131350  11.453  13.526   2.252
   80ETHO    C131351  11.422  13.398   2.310
   80ETHO   H1131352  11.415  13.315   2.237
   80ETHO   H1331353  11.504  13.377   2.382
   80ETHO    C231354  11.305  13.421   2.406
   80ETHO   H2131355  11.215  13.420   2.342
   80ETHO   H2331356  11.308  13.520   2.457
   81ETHO    O131357  11.295  13.318   2.504
   81ETHO    C131358  11.247  13.370   2.626
   81ETHO   H1131359  11.165  13.441   2.600
   81ETHO   H1331360  11.197  13.287   2.681
   81ETHO    C231361  11.362  13.423   2.716
   81ETHO   H2131362  11.435  13.484   2.658
   81ETHO   H2331363  11.317  13.501   2.782
   82ETHO    O131364  11.428  13.332   2.794
   82ETHO    C131365  11.533  13.390   2.871
   82ETHO   H1131366  11.513  13.494   2.904
   82ETHO   H1331367  11.619  13.395   2.801
   82ETHO    C231368  11.586  13.311   2.988
   82ETHO   H2131369  11.676  13.359   3.032
   82ETHO   H2331370  11.613  13.210   2.951
   83ETHO    O131371  11.483  13.294   3.090
   83ETHO    C131372  11.538  13.291   3.226
   83ETHO   H1131373  11.610  13.207   3.241
   83ETHO   H1331374  11.603  13.378   3.246
   83ETHO    C231375  11.417  13.297   3.316
   83ETHO   H2131376  11.348  13.217   3.282
   83ETHO   H2331377  11.369  13.395   3.295
   84ETHO    O131378  11.434  13.271   3.455
   84ETHO    C131379  11.323  13.321   3.530
   84ETHO   H1131380  11.227  13.276   3.495
   84ETHO   H1331381  11.322  13.431   3.518
   84ETHO    C231382  11.337  13.296   3.679
   84ETHO   H2131383  11.246  13.340   3.726
   84ETHO   H2331384  11.429  13.353   3.706
   85ETHO    O131385  11.353  13.158   3.686
   85ETHO    C131386  11.368  13.114   3.824
   85ETHO   H1131387  11.437  13.183   3.877
   85ETHO   H1331388  11.270  13.109   3.876
   85ETHO    C231389  11.439  12.977   3.833
   85ETHO   H2131390  11.394  12.901   3.766
   85ETHO   H2331391  11.423  12.927   3.930
   86ETHO    O131392  11.578  12.993   3.813
   86ETHO    C131393  11.648  12.870   3.814
   86ETHO   H1131394  11.630  12.818   3.717
   86ETHO   H1331395  11.599  12.809   3.892
   86ETHO    C231396  11.798  12.872   3.836
   86ETHO   H2131397  11.842  12.954   3.776
   86ETHO   H2331398  11.848  12.779   3.803
   87ETHO    O131399  11.843  12.899   3.967
   87ETHO    C131400  11.984  12.907   3.975
   87ETHO   H1131401  12.027  12.811   3.939
   87ETHO   H1331402  12.034  12.983   3.911
   87ETHO    C231403  12.036  12.930   4.119
   87ETHO   H2131404  11.973  12.860   4.178
   87ETHO   H2331405  12.014  13.036   4.144
   88ETHO    O131406  12.176  12.914   4.130
   88ETHO    C131407  12.212  12.778   4.146
   88ETHO   H1131408  12.207  12.722   4.051
   88ETHO   H1331409  12.142  12.733   4.220
   88ETHO    C231410  12.346  12.762   4.209
   88ETHO   H2131411  12.430  12.812   4.157
   88ETHO   H2331412  12.383  12.657   4.206
   89ETHO    O131413  12.348  12.808   4.341
   89ETHO    C131414  12.324  12.707   4.438
   89ETHO   H1131415  12.230  12.650   4.424
   89ETHO   H1331416  12.407  12.634   4.436
   89ETHO    C231417  12.326  12.782   4.574
   89ETHO   H2131418  12.278  12.704   4.637
   89ETHO   H2331419  12.275  12.880   4.573
   90ETHO    O131420  12.454  12.794   4.636
   90ETHO    C131421  12.460  12.884   4.749
   90ETHO   H1131422  12.566  12.885   4.783
   90ETHO   H1331423  12.432  12.985   4.712
   90ETHO    C231424  12.361  12.862   4.868
   90ETHO   H2131425  12.355  12.756   4.902
   90ETHO   H2331426  12.257  12.892   4.845
   91ETHO    O131427  12.403  12.938   4.979
   91ETHO    C131428  12.455  12.860   5.090
   91ETHO   H1131429  12.392  12.778   5.132
   91ETHO   H1331430  12.551  12.812   5.061
   91ETHO    C231431  12.485  12.947   5.210
   91ETHO   H2131432  12.549  13.035   5.187
   91ETHO   H2331433  12.539  12.890   5.290
   92ETHO    O131434  12.363  12.978   5.284
   92ETHO    C131435  12.382  13.085   5.380
   92ETHO   H1131436  12.487  13.094   5.415
   92ETHO   H1331437  12.354  13.175   5.322
   92ETHO    C231438  12.293  13.075   5.503
   92ETHO   H2131439  12.200  13.025   5.472
   92ETHO   H2331440  12.254  13.175   5.531
   93ETHO    O131441  12.360  13.035   5.615
   93ETHO    C131442  12.270  12.968   5.703
   93ETHO   H1131443  12.216  12.878   5.667
   93ETHO   H1331444  12.195  13.046   5.729
   93ETHO    C231445  12.343  12.931   5.826
   93ETHO   H2131446  12.426  12.861   5.802
   93ETHO   H2331447  12.275  12.872   5.892
   94ETHO    O131448  12.391  13.041   5.897
   94ETHO    C131449  12.405  13.005   6.030
   94ETHO   H1131450  12.305  12.988   6.075
   94ETHO   H1331451  12.456  12.907   6.043
   94ETHO    C231452  12.476  13.113   6.114
   94ETHO   H2131453  12.416  13.206   6.114
   94ETHO   H2331454  12.575  13.135   6.070
   95ETHO    O131455  12.499  13.069   6.248
   95ETHO    C131456  12.524  13.178   6.343
   95ETHO   H1131457  12.429  13.224   6.377
   95ETHO   H1331458  12.591  13.254   6.298
   95ETHO    C231459  12.594  13.115   6.471
   95ETHO   H2131460  12.659  13.196   6.511
   95ETHO   H2331461  12.663  13.035   6.436
   96ETHO    O131462  12.483  13.075   6.556
   96ETHO    C131463  12.520  12.973   6.650
   96ETHO   H1131464  12.496  12.875   6.603
   96ETHO   H1331465  12.629  12.978   6.669
   96ETHO    C231466  12.440  12.977   6.774
   96ETHO   H2131467  12.458  12.887   6.836
   96ETHO   H2331468  12.336  12.980   6.737
   97ETHO    O131469  12.454  13.093   6.843
   97ETHO    C131470  12.372  13.088   6.958
   97ETHO   H1131471  12.391  12.992   7.010
   97ETHO   H1331472  12.266  13.096   6.926
   97ETHO    C231473  12.409  13.199   7.058
   97ETHO   H2131474  12.419  13.299   7.010
   97ETHO   H2331475  12.509  13.176   7.100
   98ETHO    O131476  12.315  13.213   7.162
   98ETHO    C131477  12.376  13.296   7.263
   98ETHO   H1131478  12.464  13.243   7.307
   98ETHO   H1331479  12.401  13.392   7.214
   98ETHO    C231480  12.277  13.330   7.390
   98ETHO   H2131481  12.184  13.377   7.349
   98ETHO   H2331482  12.333  13.404   7.452
   99ETHO    O131483  12.263  13.214   7.471
   99ETHO    C131484  12.155  13.225   7.560
   99ETHO   H1131485  12.060  13.210   7.505
   99ETHO   H1331486  12.149  13.326   7.605
   99ETHO    C231487  12.190  13.124   7.673
   99ETHO   H2131488  12.205  13.024   7.627
   99ETHO   H2331489  12.102  13.117   7.740
  100ETHO    O131490  12.297  13.145   7.751
  100ETHO    C131491  12.311  13.055   7.859
  100ETHO   H1131492  12.215  13.002   7.877
  100ETHO   H1331493  12.383  12.978   7.823
  100ETHO    C231494  12.351  13.110   7.992
  100ETHO   H2131495  12.316  13.215   7.992
  100ETHO   H2331496  12.462  13.109   7.986
  101PROX    O131497  12.285  13.034   8.093
  101PROX    C131498  12.296  13.097   8.222
  101PROX   H1131499  12.304  13.206   8.208
  101PROX   H1331500  12.199  13.085   8.276
  101PROX    C231501  12.420  13.044   8.301
  101PROX   H2131502  12.507  13.066   8.235
  101PROX    C331503  12.391  12.902   8.334
  101PROX   H3131504  12.472  12.849   8.389
  101PROX   H3231505  12.298  12.883   8.392
  101PROX   H3331506  12.392  12.840   8.242
  102PROX    O131507  12.425  13.101   8.432
  102PROX    C131508  12.561  13.127   8.471
  102PROX   H1131509  12.631  13.086   8.395
  102PROX   H1331510  12.582  13.235   8.462
  102PROX    C231511  12.598  13.064   8.606
  102PROX   H2131512  12.533  12.974   8.620
  102PROX    C331513  12.577  13.142   8.735
  102PROX   H3131514  12.474  13.182   8.744
  102PROX   H3231515  12.593  13.075   8.822
  102PROX   H3331516  12.656  13.220   8.735
  103PROX    O131517  12.736  13.026   8.608
  103PROX    C131518  12.769  12.910   8.524
  103PROX   H1131519  12.676  12.864   8.485
  103PROX   H1331520  12.823  12.949   8.435
  103PROX    C231521  12.843  12.801   8.602
  103PROX   H2131522  12.765  12.755   8.667
  103PROX    C331523  12.957  12.862   8.694
  103PROX   H3131524  13.046  12.886   8.631
  103PROX   H3231525  12.918  12.953   8.744
  103PROX   H3331526  12.979  12.787   8.773
  104PROX    O131527  12.905  12.715   8.508
  104PROX    C131528  12.811  12.609   8.471
  104PROX   H1131529  12.708  12.648   8.484
  104PROX   H1331530  12.818  12.586   8.363
  104PROX    C231531  12.833  12.485   8.551
  104PROX   H2131532  12.821  12.510   8.659
  104PROX    C331533  12.975  12.431   8.537
  104PROX   H3131534  13.000  12.342   8.599
  104PROX   H3231535  12.997  12.409   8.430
  104PROX   H3331536  13.042  12.517   8.556
  105PROX    O131537  12.745  12.390   8.508
  105PROX    C131538  12.732  12.266   8.591
  105PROX   H1131539  12.653  12.201   8.547
  105PROX   H1331540  12.825  12.206   8.598
  105PROX    C231541  12.682  12.298   8.734
  105PROX   H2131542  12.754  12.352   8.799
  105PROX    C331543  12.660  12.163   8.802
  105PROX   H3131544  12.754  12.131   8.851
  105PROX   H3231545  12.585  12.161   8.884
  105PROX   H3331546  12.639  12.085   8.725
  106PROX    O131547  12.559  12.376   8.724
  106PROX    C131548  12.558  12.512   8.775
  106PROX   H1131549  12.568  12.510   8.886
  106PROX   H1331550  12.639  12.579   8.739
  106PROX    C231551  12.429  12.591   8.735
  106PROX   H2131552  12.344  12.538   8.783
  106PROX    C331553  12.401  12.595   8.584
  106PROX   H3131554  12.300  12.638   8.565
  106PROX   H3231555  12.464  12.669   8.530
  106PROX   H3331556  12.410  12.497   8.533
  107PROX    O131557  12.442  12.729   8.780
  107PROX    C131558  12.422  12.734   8.922
  107PROX   H1131559  12.317  12.768   8.936
  107PROX   H1331560  12.436  12.636   8.973
  107PROX    C231561  12.509  12.841   8.989
  107PROX   H2131562  12.472  12.941   8.959
  107PROX    C331563  12.655  12.848   8.956
  107PROX   H3131564  12.691  12.952   8.968
  107PROX   H3231565  12.721  12.782   9.017
  107PROX   H3331566  12.671  12.834   8.847
  108PROX    O131567  12.482  12.841   9.130
  108PROX    C131568  12.351  12.889   9.168
  108PROX   H1131569  12.351  13.000   9.155
  108PROX   H1331570  12.263  12.858   9.108
  108PROX    C231571  12.329  12.859   9.325
  108PROX   H2131572  12.409  12.915   9.377
  108PROX    C331573  12.325  12.708   9.356
  108PROX   H3131574  12.396  12.643   9.301
  108PROX   H3231575  12.311  12.696   9.466
  108PROX   H3331576  12.226  12.674   9.317
  109PROX    O131577  12.203  12.912   9.366
  109PROX    C131578  12.213  13.037   9.439
  109PROX   H1131579  12.265  13.108   9.372
  109PROX   H1331580  12.107  13.071   9.438
  109PROX    C231581  12.270  13.025   9.587
  109PROX   H2131582  12.219  12.940   9.638
  109PROX    C331583  12.235  13.152   9.676
  109PROX   H3131584  12.238  13.127   9.785
  109PROX   H3231585  12.315  13.227   9.664
  109PROX   H3331586  12.133  13.194   9.662
  110PROX    O131587  12.410  13.011   9.587
  110PROX    C131588  12.457  12.965   9.710
  110PROX   H1131589  12.452  13.046   9.786
  110PROX   H1331590  12.394  12.877   9.735
  110PROX    C231591  12.593  12.903   9.698
  110PROX   H2131592  12.656  12.986   9.658
  110PROX    C331593  12.582  12.797   9.589
  110PROX   H3131594  12.682  12.756   9.561
  110PROX   H3231595  12.512  12.721   9.631
  110PROX   H3331596  12.540  12.838   9.496
  111PROX    O131597  12.647  12.861   9.825
  111PROX    C131598  12.765  12.790   9.820
  111PROX   H1131599  12.749  12.695   9.764
  111PROX   H1331600  12.844  12.846   9.765
  111PROX    C231601  12.817  12.755   9.960
  111PROX   H2131602  12.928  12.749   9.950
  111PROX    C331603  12.779  12.614  10.007
  111PROX   H3131604  12.825  12.606  10.108
  111PROX   H3231605  12.670  12.597  10.019
  111PROX   H3331606  12.827  12.538   9.942
  112PROX    O131607  12.786  12.860  10.050
  112PROX    C131608  12.844  12.983  10.023
  112PROX   H1131609  12.954  12.990  10.028
  112PROX   H1331610  12.810  13.019   9.923
  112PROX    C231611  12.787  13.072  10.133
  112PROX   H2131612  12.832  13.173  10.117
  112PROX    C331613  12.840  13.044  10.272
  112PROX   H3131614  12.951  13.037  10.273
  112PROX   H3231615  12.791  13.111  10.346
  112PROX   H3331616  12.819  12.938  10.295
  113PROX    O131617  12.644  13.069  10.153
  113PROX    C131618  12.572  13.127  10.050
  113PROX   H1131619  12.613  13.094   9.952
  113PROX   H1331620  12.471  13.087  10.070
  113PROX    C231621  12.569  13.276  10.064
  113PROX   H2131622  12.583  13.310  10.169
  113PROX    C331623  12.450  13.330   9.995
  113PROX   H3131624  12.442  13.441  10.002
  113PROX   H3231625  12.456  13.299   9.889
  113PROX   H3331626  12.354  13.286  10.030
  114PROX    O131627  12.676  13.320   9.991
  114PROX    C131628  12.716  13.458  10.012
  114PROX   H1131629  12.636  13.534  10.006
  114PROX   H1331630  12.757  13.466  10.115
  114PROX    C231631  12.836  13.501   9.920
  114PROX   H2131632  12.919  13.432   9.948
  114PROX    C331633  12.880  13.653   9.940
  114PROX   H3131634  12.911  13.671  10.046
  114PROX   H3231635  12.970  13.667   9.876
  114PROX   H3331636  12.797  13.726   9.931
  115PROX    O131637  12.796  13.492   9.785
  115PROX    C131638  12.841  13.368   9.722
  115PROX   H1131639  12.786  13.287   9.774
  115PROX   H1331640  12.801  13.366   9.618
  115PROX    C231641  12.998  13.343   9.724
  115PROX   H2131642  13.051  13.358   9.820
  115PROX    C331643  13.073  13.448   9.638
  115PROX   H3131644  13.053  13.553   9.669
  115PROX   H3231645  13.182  13.428   9.630
  115PROX   H3331646  13.047  13.434   9.531
  116PROX    O131647  13.031  13.218   9.670
  116PROX    C131648  12.995  13.103   9.747
  116PROX   H1131649  13.026  13.120   9.852
  116PROX   H1331650  12.887  13.079   9.730
  116PROX    C231651  13.090  12.992   9.699
  116PROX   H2131652  13.195  13.028   9.695
  116PROX    C331653  13.061  12.960   9.552
  116PROX   H3131654  12.956  12.931   9.530
  116PROX   H3231655  13.085  13.051   9.493
  116PROX   H3331656  13.129  12.881   9.516
  117PROX    O131657  13.068  12.868   9.767
  117PROX    C131658  13.187  12.781   9.757
  117PROX   H1131659  13.262  12.797   9.677
  117PROX   H1331660  13.240  12.794   9.854
  117PROX    C231661  13.140  12.634   9.742
  117PROX   H2131662  13.054  12.624   9.811
  117PROX    C331663  13.251  12.545   9.793
  117PROX   H3131664  13.250  12.540   9.904
  117PROX   H3231665  13.228  12.442   9.757
  117PROX   H3331666  13.345  12.584   9.748
  118PROX    O131667  13.113  12.593   9.610
  118PROX    C131668  12.981  12.614   9.565
  118PROX   H1131669  12.933  12.706   9.603
  118PROX   H1331670  12.988  12.632   9.456
  118PROX    C231671  12.888  12.491   9.596
  118PROX   H2131672  12.870  12.490   9.706
  118PROX    C331673  12.953  12.357   9.547
  118PROX   H3131674  12.986  12.385   9.445
  118PROX   H3231675  13.042  12.330   9.607
  118PROX   H3331676  12.871  12.283   9.535
  119PROX    O131677  12.764  12.510   9.529
  119PROX    C131678  12.653  12.443   9.591
  119PROX   H1131679  12.683  12.344   9.632
  119PROX   H1331680  12.610  12.497   9.677
  119PROX    C231681  12.547  12.424   9.482
  119PROX   H2131682  12.524  12.525   9.443
  119PROX    C331683  12.416  12.367   9.543
  119PROX   H3131684  12.436  12.283   9.613
  119PROX   H3231685  12.360  12.450   9.590
  119PROX   H3331686  12.356  12.333   9.456
  120PROX    O131687  12.595  12.342   9.380
  120PROX    C131688  12.648  12.424   9.276
  120PROX   H1131689  12.576  12.498   9.233
  120PROX   H1331690  12.726  12.494   9.312
  120PROX    C231691  12.691  12.335   9.161
  120PROX   H2131692  12.607  12.271   9.127
  120PROX    C331693  12.797  12.232   9.199
  120PROX   H3131694  12.782  12.177   9.295
  120PROX   H3231695  12.799  12.159   9.116
  120PROX   H3331696  12.900  12.272   9.209
  121PROX    O131697  12.740  12.413   9.051
  121PROX    C131698  12.834  12.512   9.086
  121PROX   H1131699  12.782  12.598   9.133
  121PROX   H1331700  12.906  12.476   9.163
  121PROX    C231701  12.933  12.540   8.961
  121PROX   H2131702  12.885  12.579   8.869
  121PROX    C331703  13.002  12.410   8.928
  121PROX   H3131704  13.088  12.431   8.861
  121PROX   H3231705  13.049  12.369   9.020
  121PROX   H3331706  12.930  12.334   8.892
  122PROX    O131707  13.043  12.625   9.003
  122PROX    C131708  13.020  12.749   9.058
  122PROX   H1131709  12.950  12.798   8.987
  122PROX   H1331710  12.973  12.751   9.159
  122PROX    C231711  13.155  12.822   9.064
  122PROX   H2131712  13.192  12.824   8.960
  122PROX    C331713  13.258  12.744   9.150
  122PROX   H3131714  13.256  12.640   9.114
  122PROX   H3231715  13.363  12.775   9.135
  122PROX   H3331716  13.222  12.740   9.256
  123PROX    O131717  13.142  12.949   9.121
  123PROX    C131718  13.058  13.042   9.049
  123PROX   H1131719  13.113  13.059   8.954
  123PROX   H1331720  12.961  12.996   9.021
  123PROX    C231721  13.029  13.179   9.120
  123PROX   H2131722  12.976  13.244   9.046
  123PROX    C331723  13.162  13.230   9.186
  123PROX   H3131724  13.139  13.318   9.250
  123PROX   H3231725  13.186  13.147   9.255
  123PROX   H3331726  13.236  13.248   9.105
  124PROX    O131727  12.937  13.157   9.232
  124PROX    C131728  12.873  13.275   9.280
  124PROX   H1131729  12.922  13.299   9.377
  124PROX   H1331730  12.886  13.360   9.210
  124PROX    C231731  12.722  13.255   9.313
  124PROX   H2131732  12.710  13.201   9.409
  124PROX    C331733  12.664  13.166   9.198
  124PROX   H3131734  12.673  13.209   9.096
  124PROX   H3231735  12.708  13.064   9.191
  124PROX   H3331736  12.556  13.143   9.205
  125PROX    O131737  12.656  13.384   9.331
  125PROX    C131738  12.511  13.370   9.335
  125PROX   H1131739  12.460  13.402   9.242
  125PROX   H1331740  12.479  13.266   9.355
  125PROX    C231741  12.450  13.450   9.449
  125PROX   H2131742  12.476  13.557   9.433
  125PROX    C331743  12.500  13.399   9.586
  125PROX   H3131744  12.601  13.441   9.607
  125PROX   H3231745  12.437  13.431   9.671
  125PROX   H3331746  12.511  13.289   9.581
  126PROX    O131747  12.303  13.444   9.437
  126PROX    C131748  12.235  13.552   9.509
  126PROX   H1131749  12.183  13.506   9.596
  126PROX   H1331750  12.299  13.639   9.537
  126PROX    C231751  12.115  13.612   9.426
  126PROX   H2131752  12.060  13.686   9.488
  126PROX    C331753  12.022  13.501   9.398
  126PROX   H3131754  12.054  13.456   9.302
  126PROX   H3231755  12.032  13.411   9.462
  126PROX   H3331756  11.914  13.526   9.392
  127PROX    O131757  12.167  13.678   9.311
  127PROX    C131758  12.074  13.762   9.241
  127PROX   H1131759  12.003  13.714   9.171
  127PROX   H1331760  12.010  13.803   9.322
  127PROX    C231761  12.138  13.878   9.160
  127PROX   H2131762  12.216  13.926   9.223
  127PROX    C331763  12.030  13.986   9.115
  127PROX   H3131764  11.933  13.943   9.081
  127PROX   H3231765  12.006  14.039   9.209
  127PROX   H3331766  12.074  14.051   9.037
  128PROX    O131767  12.210  13.826   9.049
  128PROX    C131768  12.338  13.769   9.078
  128PROX   H1131769  12.379  13.815   9.171
  128PROX   H1331770  12.314  13.660   9.086
  128PROX    C231771  12.443  13.793   8.963
  128PROX   H2131772  12.468  13.900   8.981
  128PROX    C331773  12.377  13.761   8.830
  128PROX   H3131774  12.430  13.782   8.735
  128PROX   H3231775  12.349  13.655   8.816
  128PROX   H3331776  12.282  13.818   8.837
  129PROX    O131777  12.568  13.718   8.983
  129PROX    C131778  12.609  13.718   9.115
  129PROX   H1131779  12.537  13.681   9.190
  129PROX   H1331780  12.695  13.648   9.114
  129PROX    C231781  12.661  13.859   9.165
  129PROX   H2131782  12.582  13.936   9.166
  129PROX    C331783  12.764  13.906   9.060
  129PROX   H3131784  12.786  14.010   9.090
  129PROX   H3231785  12.859  13.849   9.067
  129PROX   H3331786  12.726  13.907   8.956
  130PROX    O131787  12.708  13.848   9.297
  130PROX    C131788  12.609  13.864   9.398
  130PROX   H1131789  12.581  13.971   9.386
  130PROX   H1331790  12.517  13.809   9.370
  130PROX    C231791  12.665  13.852   9.543
  130PROX   H2131792  12.768  13.893   9.548
  130PROX    C331793  12.671  13.707   9.585
  130PROX   H3131794  12.702  13.647   9.497
  130PROX   H3231795  12.747  13.689   9.664
  130PROX   H3331796  12.573  13.665   9.616
  131PROX    O131797  12.577  13.929   9.626
  131PROX    C131798  12.637  13.976   9.750
  131PROX   H1131799  12.679  13.904   9.823
  131PROX   H1331800  12.720  14.046   9.727
  131PROX    C231801  12.530  14.062   9.825
  131PROX   H2131802  12.502  14.156   9.774
  131PROX    C331803  12.578  14.111   9.964
  131PROX   H3131804  12.606  14.031  10.036
  131PROX   H3231805  12.665  14.177   9.943
  131PROX   H3331806  12.501  14.173  10.014
  132PROX    O131807  12.406  13.994   9.839
  132PROX    C131808  12.314  14.023   9.731
  132PROX   H1131809  12.271  14.122   9.758
  132PROX   H1331810  12.361  14.038   9.631
  132PROX    C231811  12.202  13.916   9.735
  132PROX   H2131812  12.264  13.824   9.739
  132PROX    C331813  12.112  13.923   9.607
  132PROX   H3131814  12.024  13.856   9.615
  132PROX   H3231815  12.083  14.024   9.572
  132PROX   H3331816  12.166  13.888   9.517
  133PROX    O131817  12.116  13.925   9.854
  133PROX    C131818  12.087  13.796   9.906
  133PROX   H1131819  12.028  13.750   9.824
  133PROX   H1331820  12.177  13.731   9.917
  133PROX    C231821  11.996  13.787  10.032
  133PROX   H2131822  11.918  13.865  10.027
  133PROX    C331823  12.064  13.812  10.167
  133PROX   H3131824  12.163  13.858  10.148
  133PROX   H3231825  12.013  13.883  10.235
  133PROX   H3331826  12.073  13.713  10.217
  134PROX    O131827  11.935  13.658  10.033
  134PROX    C131828  11.801  13.661   9.993
  134PROX   H1131829  11.733  13.715  10.063
  134PROX   H1331830  11.791  13.733   9.909
  134PROX    C231831  11.737  13.528   9.958
  134PROX   H2131832  11.634  13.551   9.924
  134PROX    C331833  11.729  13.443  10.086
  134PROX   H3131834  11.656  13.360  10.076
  134PROX   H3231835  11.825  13.388  10.093
  134PROX   H3331836  11.713  13.510  10.173
  135PROX    O131837  11.806  13.446   9.861
  135PROX    C131838  11.718  13.403   9.753
  135PROX   H1131839  11.628  13.359   9.800
  135PROX   H1331840  11.677  13.484   9.689
  135PROX    C231841  11.776  13.295   9.668
  135PROX   H2131842  11.878  13.321   9.633
  135PROX    C331843  11.701  13.256   9.545
  135PROX   H3131844  11.597  13.224   9.567
  135PROX   H3231845  11.692  13.341   9.473
  135PROX   H3331846  11.745  13.168   9.493
  136PROX    O131847  11.767  13.173   9.732
  136PROX    C131848  11.865  13.140   9.834
  136PROX   H1131849  11.962  13.111   9.790
  136PROX   H1331850  11.869  13.219   9.913
  136PROX    C231851  11.816  13.022   9.925
  136PROX   H2131852  11.828  12.932   9.861
  136PROX    C331853  11.678  13.048   9.977
  136PROX   H3131854  11.649  12.966  10.046
  136PROX   H3231855  11.681  13.154  10.011
  136PROX   H3331856  11.608  13.044   9.891
  137PROX    O131857  11.905  13.009  10.039
  137PROX    C131858  12.017  12.933  10.007
  137PROX   H1131859  11.976  12.831   9.987
  137PROX   H1331860  12.068  12.968   9.915
  137PROX    C231861  12.118  12.943  10.115
  137PROX   H2131862  12.075  12.912  10.213
  137PROX    C331863  12.167  13.089  10.128
  137PROX   H3131864  12.240  13.115  10.207
  137PROX   H3231865  12.219  13.106  10.031
  137PROX   H3331866  12.083  13.161  10.140
  138PROX    O131867  12.234  12.874  10.076
  138PROX    C131868  12.225  12.733  10.101
  138PROX   H1131869  12.293  12.697  10.181
  138PROX   H1331870  12.123  12.702  10.131
  138PROX    C231871  12.259  12.652   9.982
  138PROX   H2131872  12.243  12.544   9.999
  138PROX    C331873  12.411  12.660   9.946
  138PROX   H3131874  12.447  12.762   9.923
  138PROX   H3231875  12.464  12.627  10.038
  138PROX   H3331876  12.435  12.584   9.868
  139PROX    O131877  12.182  12.703   9.870
  139PROX    C131878  12.130  12.597   9.798
  139PROX   H1131879  12.199  12.510   9.791
  139PROX   H1331880  12.039  12.563   9.852
  139PROX    C231881  12.076  12.646   9.659
  139PROX   H2131882  12.155  12.692   9.597
  139PROX    C331883  11.968  12.757   9.692
  139PROX   H3131884  12.028  12.844   9.727
  139PROX   H3231885  11.915  12.785   9.598
  139PROX   H3331886  11.898  12.721   9.770
  140PROX    O131887  12.005  12.535   9.601
  140PROX    C131888  12.087  12.438   9.553
  140PROX   H1131889  12.158  12.478   9.477
  140PROX   H1331890  12.139  12.382   9.634
  140PROX    C231891  12.005  12.317   9.494
  140PROX   H2131892  12.079  12.248   9.449
  140PROX    C331893  11.912  12.370   9.381
  140PROX   H3131894  11.972  12.436   9.314
  140PROX   H3231895  11.871  12.292   9.313
  140PROX   H3331896  11.835  12.439   9.422
  141PROX    O131897  11.920  12.264   9.604
  141PROX    C131898  11.952  12.132   9.633
  141PROX   H1131899  11.949  12.079   9.535
  141PROX   H1331900  12.059  12.128   9.664
  141PROX    C231901  11.862  12.061   9.725
  141PROX   H2131902  11.887  11.953   9.727
  141PROX    C331903  11.715  12.065   9.674
  141PROX   H3131904  11.680  12.170   9.664
  141PROX   H3231905  11.709  12.025   9.571
  141PROX   H3331906  11.657  11.999   9.742
  142PROX    O131907  11.879  12.124   9.853
  142PROX    C131908  12.011  12.103   9.898
  142PROX   H1131909  12.007  12.069  10.004
  142PROX   H1331910  12.074  12.027   9.848
  142PROX    C231911  12.080  12.246   9.907
  142PROX   H2131912  12.041  12.315   9.829
  142PROX    C331913  12.233  12.237   9.893
  142PROX   H3131914  12.285  12.334   9.880
  142PROX   H3231915  12.273  12.178   9.979
  142PROX   H3331916  12.259  12.171   9.807
  143PROX    O131917  12.060  12.306  10.030
  143PROX    C131918  11.934  12.355  10.055
  143PROX   H1131919  11.908  12.426   9.974
  143PROX   H1331920  11.863  12.269  10.058
  143PROX    C231921  11.945  12.422  10.189
  143PROX   H2131922  12.025  12.498  10.176
  143PROX    C331923  11.975  12.333  10.314
  143PROX   H3131924  12.085  12.314  10.307
  143PROX   H3231925  11.957  12.379  10.413
  143PROX   H3331926  11.918  12.238  10.306
  144PROX    O131927  11.820  12.482  10.210
  144PROX    C131928  11.814  12.585  10.302
  144PROX   H1131929  11.730  12.568  10.372
  144PROX   H1331930  11.905  12.588  10.367
  144PROX    C231931  11.794  12.712  10.220
  144PROX   H2131932  11.880  12.733  10.153
  144PROX    C331933  11.776  12.840  10.305
  144PROX   H3131934  11.749  12.930  10.245
  144PROX   H3231935  11.684  12.838  10.368
  144PROX   H3331936  11.871  12.852  10.361
  145PROX    O131937  11.676  12.692  10.147
  145PROX    C131938  11.700  12.663  10.011
  145PROX   H1131939  11.767  12.742   9.973
  145PROX   H1331940  11.750  12.564  10.009
  145PROX    C231941  11.567  12.661   9.928
  145PROX   H2131942  11.519  12.760   9.947
  145PROX    C331943  11.481  12.541   9.969
  145PROX   H3131944  11.524  12.455   9.914
  145PROX   H3231945  11.480  12.528  10.079
  145PROX   H3331946  11.373  12.557   9.946
  146PROX    O131947  11.595  12.660   9.791
  146PROX    C131948  11.477  12.678   9.715
  146PROX   H1131949  11.419  12.585   9.698
  146PROX   H1331950  11.407  12.751   9.760
  146PROX    C231951  11.532  12.738   9.578
  146PROX   H2131952  11.608  12.667   9.537
  146PROX    C331953  11.600  12.874   9.596
  146PROX   H3131954  11.622  12.915   9.495
  146PROX   H3231955  11.528  12.951   9.634
  146PROX   H3331956  11.691  12.868   9.659
  147PROX    O131957  11.428  12.768   9.478
  147PROX    C131958  11.357  12.654   9.422
  147PROX   H1131959  11.436  12.587   9.383
  147PROX   H1331960  11.289  12.611   9.498
  147PROX    C231961  11.273  12.697   9.304
  147PROX   H2131962  11.333  12.753   9.230
  147PROX    C331963  11.157  12.787   9.342
  147PROX   H3131964  11.106  12.823   9.250
  147PROX   H3231965  11.091  12.727   9.408
  147PROX   H3331966  11.190  12.877   9.398
  148PROX    O131967  11.222  12.574   9.250
  148PROX    C131968  11.256  12.563   9.112
  148PROX   H1131969  11.195  12.630   9.048
  148PROX   H1331970  11.362  12.592   9.096
  148PROX    C231971  11.228  12.428   9.062
  148PROX   H2131972  11.252  12.430   8.954
  148PROX    C331973  11.086  12.377   9.086
  148PROX   H3131974  11.078  12.272   9.050
  148PROX   H3231975  11.053  12.385   9.192
  148PROX   H3331976  11.014  12.436   9.025
  149PROX    O131977  11.315  12.334   9.127
  149PROX    C131978  11.447  12.329   9.068
  149PROX   H1131979  11.443  12.270   8.974
  149PROX   H1331980  11.478  12.435   9.055
  149PROX    C231981  11.553  12.245   9.160
  149PROX   H2131982  11.504  12.148   9.182
  149PROX    C331983  11.584  12.323   9.288
  149PROX   H3131984  11.488  12.355   9.332
  149PROX   H3231985  11.641  12.260   9.360
  149PROX   H3331986  11.637  12.420   9.281
  150PROX    O131987  11.666  12.218   9.083
  150PROX    C131988  11.722  12.083   9.101
  150PROX   H1131989  11.715  12.058   9.209
  150PROX   H1331990  11.685  12.011   9.025
  150PROX    C231991  11.875  12.092   9.074
  150PROX   H2131992  11.902  12.192   9.114
  150PROX    C331993  11.893  12.086   8.918
  150PROX   H3131994  11.832  12.169   8.877
  150PROX   H3231995  11.999  12.108   8.893
  150PROX   H3331996  11.874  11.985   8.876
  151PROX    O131997  11.945  11.980   9.134
  151PROX    C131998  12.018  12.015   9.250
  151PROX   H1131999  12.094  12.094   9.231
  151PROX   H1332000  11.943  12.065   9.315
  151PROX    C232001  12.082  11.899   9.323
  151PROX   H2132002  12.148  11.846   9.250
  151PROX    C332003  11.993  11.783   9.378
  151PROX   H3132004  11.919  11.812   9.455
  151PROX   H3232005  11.947  11.726   9.294
  151PROX   H3332006  12.071  11.720   9.426
  152PROX    O132007  12.156  11.949   9.443
  152PROX    C132008  12.287  11.995   9.409
  152PROX   H1132009  12.282  12.080   9.338
  152PROX   H1332010  12.326  12.045   9.500
  152PROX    C232011  12.388  11.893   9.360
  152PROX   H2132012  12.352  11.828   9.278
  152PROX    C332013  12.440  11.812   9.477
  152PROX   H3132014  12.471  11.872   9.565
  152PROX   H3232015  12.368  11.732   9.503
  152PROX   H3332016  12.526  11.754   9.437
  153PROX    O132017  12.510  11.960   9.314
  153PROX    C132018  12.550  11.920   9.180
  153PROX   H1132019  12.643  11.970   9.146
  153PROX   H1332020  12.574  11.812   9.178
  153PROX    C232021  12.451  11.944   9.065
  153PROX   H2132022  12.350  11.901   9.082
  153PROX    C332023  12.502  11.897   8.926
  153PROX   H3132024  12.610  11.922   8.923
  153PROX   H3232025  12.509  11.786   8.919
  153PROX   H3332026  12.440  11.944   8.847
  154PROX    O132027  12.434  12.088   9.052
  154PROX    C132028  12.301  12.121   9.010
  154PROX   H1132029  12.297  12.106   8.900
  154PROX   H1332030  12.224  12.070   9.071
  154PROX    C232031  12.278  12.271   9.042
  154PROX   H2132032  12.341  12.337   8.979
  154PROX    C332033  12.309  12.313   9.184
  154PROX   H3132034  12.396  12.262   9.229
  154PROX   H3232035  12.336  12.421   9.194
  154PROX   H3332036  12.222  12.278   9.243
  155PROX    O132037  12.143  12.296   9.011
  155PROX    C132038  12.104  12.433   8.991
  155PROX   H1132039  12.125  12.496   9.080
  155PROX   H1332040  12.160  12.467   8.902
  155PROX    C232041  11.947  12.455   8.971
  155PROX   H2132042  11.898  12.388   9.044
  155PROX    C332043  11.904  12.430   8.829
  155PROX   H3132044  11.947  12.506   8.760
  155PROX   H3232045  11.947  12.336   8.789
  155PROX   H3332046  11.795  12.411   8.822
  156PROX    O132047  11.912  12.586   9.008
  156PROX    C132048  11.772  12.613   8.996
  156PROX   H1132049  11.751  12.636   8.890
  156PROX   H1332050  11.720  12.530   9.048
  156PROX    C232051  11.749  12.737   9.082
  156PROX   H2132052  11.823  12.818   9.063
  156PROX    C332053  11.780  12.708   9.231
  156PROX   H3132054  11.703  12.631   9.253
  156PROX   H3232055  11.878  12.656   9.241
  156PROX   H3332056  11.772  12.796   9.298
  157PROX    O132057  11.612  12.783   9.058
  157PROX    C132058  11.589  12.922   9.088
  157PROX   H1132059  11.536  12.916   9.185
  157PROX   H1332060  11.687  12.971   9.105
  157PROX    C232061  11.498  12.995   8.984
  157PROX   H2132062  11.509  13.105   8.991
  157PROX    C332063  11.345  12.948   8.989
  157PROX   H3132064  11.279  13.016   8.930
  157PROX   H3232065  11.344  12.847   8.943
  157PROX   H3332066  11.313  12.936   9.095
  158PROX    O132067  11.545  12.956   8.862
  158PROX    C132068  11.666  13.015   8.811
  158PROX   H1132069  11.651  13.125   8.806
  158PROX   H1332070  11.750  12.991   8.879
  158PROX    C232071  11.708  12.949   8.676
  158PROX   H2132072  11.807  12.994   8.657
  158PROX    C332073  11.613  12.966   8.556
  158PROX   H3132074  11.655  12.927   8.462
  158PROX   H3232075  11.515  12.917   8.577
  158PROX   H3332076  11.599  13.074   8.534
  159PROX    O132077  11.734  12.806   8.696
  159PROX    C132078  11.806  12.741   8.594
  159PROX   H1132079  11.795  12.633   8.617
  159PROX   H1332080  11.750  12.752   8.499
  159PROX    C232081  11.960  12.771   8.579
  159PROX   H2132082  11.973  12.879   8.557
  159PROX    C332083  12.022  12.713   8.454
  159PROX   H3132084  12.041  12.604   8.459
  159PROX   H3232085  11.961  12.731   8.362
  159PROX   H3332086  12.115  12.769   8.429
  160PROX    O132087  12.032  12.732   8.695
  160PROX    C132088  12.031  12.833   8.796
  160PROX   H1132089  11.928  12.851   8.832
  160PROX   H1332090  12.081  12.798   8.888
  160PROX    C232091  12.100  12.966   8.775
  160PROX   H2132092  12.031  13.033   8.720
  160PROX    C332093  12.240  12.976   8.710
  160PROX   H3132094  12.296  13.070   8.729
  160PROX   H3232095  12.303  12.894   8.748
  160PROX   H3332096  12.229  12.962   8.600
  161PROX    O132097  12.124  13.029   8.903
  161PROX    C132098  12.007  13.078   8.963
  161PROX   H1132099  11.944  13.142   8.898
  161PROX   H1332100  11.944  12.990   8.985
  161PROX    C232101  12.030  13.136   9.103
  161PROX   H2132102  12.114  13.074   9.141
  161PROX    C332103  11.895  13.119   9.193
  161PROX   H3132104  11.813  13.173   9.141
  161PROX   H3232105  11.866  13.012   9.197
  161PROX   H3332106  11.909  13.163   9.294
  162PROX    O132107  12.055  13.277   9.094
  162PROX    C132108  12.194  13.306   9.095
  162PROX   H1132109  12.209  13.399   9.155
  162PROX   H1332110  12.259  13.222   9.128
  162PROX    C232111  12.233  13.341   8.949
  162PROX   H2132112  12.180  13.267   8.884
  162PROX    C332113  12.382  13.329   8.925
  162PROX   H3132114  12.427  13.233   8.959
  162PROX   H3232115  12.400  13.341   8.816
  162PROX   H3332116  12.427  13.416   8.977
  163PROX    O132117  12.209  13.474   8.913
  163PROX    C132118  12.065  13.488   8.898
  163PROX   H1132119  12.021  13.393   8.861
  163PROX   H1332120  12.025  13.511   8.999
  163PROX    C232121  12.036  13.608   8.806
  163PROX   H2132122  12.123  13.676   8.797
  163PROX    C332123  11.918  13.684   8.861
  163PROX   H3132124  11.834  13.623   8.900
  163PROX   H3232125  11.947  13.751   8.945
  163PROX   H3332126  11.869  13.751   8.787
  164PROX    O132127  11.999  13.555   8.672
  164PROX    C132128  12.118  13.540   8.592
  164PROX   H1132129  12.132  13.604   8.502
  164PROX   H1332130  12.205  13.561   8.658
  164PROX    C232131  12.141  13.392   8.548
  164PROX   H2132132  12.137  13.328   8.639
  164PROX    C332133  12.277  13.370   8.475
  164PROX   H3132134  12.362  13.401   8.538
  164PROX   H3232135  12.288  13.261   8.454
  164PROX   H3332136  12.274  13.415   8.374
  165PROX    O132137  12.030  13.361   8.466
  165PROX    C132138  11.993  13.225   8.474
  165PROX   H1132139  12.085  13.165   8.486
  165PROX   H1332140  11.943  13.192   8.567
  165PROX    C232141  11.906  13.195   8.349
  165PROX   H2132142  11.952  13.229   8.254
  165PROX    C332143  11.774  13.261   8.370
  165PROX   H3132144  11.696  13.223   8.300
  165PROX   H3232145  11.738  13.241   8.473
  165PROX   H3332146  11.781  13.368   8.342
  166ETHO    O132147  11.893  13.053   8.356
  166ETHO    C132148  11.848  13.004   8.233
  166ETHO   H1132149  11.791  13.080   8.175
  166ETHO   H1332150  11.782  12.916   8.249
  166ETHO    C232151  11.967  12.954   8.152
  166ETHO   H2132152  12.043  12.895   8.207
  166ETHO   H2332153  12.029  13.043   8.128
  167ETHO    O132154  11.932  12.873   8.042
  167ETHO    C132155  11.868  12.935   7.933
  167ETHO   H1132156  11.764  12.961   7.961
  167ETHO   H1332157  11.910  13.036   7.914
  167ETHO    C232158  11.866  12.842   7.820
  167ETHO   H2132159  11.792  12.864   7.740
  167ETHO   H2332160  11.847  12.737   7.850
  168ETHO    O132161  11.998  12.819   7.770
  168ETHO    C132162  12.008  12.705   7.682
  168ETHO   H1132163  11.922  12.692   7.612
  168ETHO   H1332164  12.006  12.620   7.753
  168ETHO    C232165  12.152  12.704   7.626
  168ETHO   H2132166  12.178  12.600   7.600
  168ETHO   H2332167  12.224  12.748   7.698
  169ETHO    O132168  12.161  12.765   7.501
  169ETHO    C132169  12.295  12.791   7.460
  169ETHO   H1132170  12.358  12.835   7.541
  169ETHO   H1332171  12.353  12.702   7.426
  169ETHO    C232172  12.282  12.899   7.355
  169ETHO   H2132173  12.379  12.952   7.350
  169ETHO   H2332174  12.205  12.972   7.385
  170ETHO    O132175  12.266  12.853   7.218
  170ETHO    C132176  12.138  12.803   7.189
  170ETHO   H1132177  12.060  12.873   7.225
  170ETHO   H1332178  12.122  12.721   7.263
  170ETHO    C232179  12.122  12.768   7.047
  170ETHO   H2132180  12.127  12.852   6.975
  170ETHO   H2332181  12.022  12.723   7.033
  171ETHO    O132182  12.205  12.666   7.008
  171ETHO    C132183  12.171  12.627   6.872
  171ETHO   H1132184  12.077  12.569   6.873
  171ETHO   H1332185  12.166  12.718   6.808
  171ETHO    C232186  12.284  12.542   6.807
  171ETHO   H2132187  12.235  12.498   6.718
  171ETHO   H2332188  12.306  12.458   6.877
  172ETHO    O132189  12.392  12.610   6.762
  172ETHO    C132190  12.493  12.523   6.703
  172ETHO   H1132191  12.499  12.429   6.761
  172ETHO   H1332192  12.592  12.572   6.716
  172ETHO    C232193  12.487  12.510   6.549
  172ETHO   H2132194  12.385  12.470   6.529
  172ETHO   H2332195  12.561  12.431   6.525
  173ETHO    O132196  12.518  12.626   6.472
  173ETHO    C132197  12.532  12.587   6.336
  173ETHO   H1132198  12.640  12.574   6.313
  173ETHO   H1332199  12.481  12.490   6.315
  173ETHO    C232200  12.462  12.690   6.251
  173ETHO   H2132201  12.513  12.788   6.265
  173ETHO   H2332202  12.478  12.667   6.143
  174ETHO    O132203  12.326  12.724   6.283
  174ETHO    C132204  12.232  12.612   6.256
  174ETHO   H1132205  12.277  12.562   6.168
  174ETHO   H1332206  12.235  12.546   6.345
  174ETHO    C232207  12.090  12.662   6.226
  174ETHO   H2132208  12.097  12.750   6.158
  174ETHO   H2332209  12.041  12.695   6.320
  175ETHO    O132210  12.014  12.560   6.162
  175ETHO    C132211  11.950  12.474   6.251
  175ETHO   H1132212  12.028  12.424   6.312
  175ETHO   H1332213  11.884  12.522   6.328
  175ETHO    C232214  11.866  12.367   6.187
  175ETHO   H2132215  11.826  12.304   6.269
  175ETHO   H2332216  11.920  12.294   6.123
  176ETHO    O132217  11.762  12.418   6.113
  176ETHO    C132218  11.669  12.312   6.070
  176ETHO   H1132219  11.733  12.241   6.014
  176ETHO   H1332220  11.633  12.264   6.164
  176ETHO    C232221  11.555  12.380   5.993
  176ETHO   H2132222  11.569  12.485   5.959
  176ETHO   H2332223  11.470  12.397   6.063
  177ETHO    O132224  11.520  12.302   5.881
  177ETHO    C132225  11.398  12.346   5.835
  177ETHO   H1132226  11.403  12.453   5.804
  177ETHO   H1332227  11.335  12.342   5.926
  177ETHO    C232228  11.354  12.273   5.712
  177ETHO   H2132229  11.440  12.268   5.642
  177ETHO   H2332230  11.271  12.325   5.660
  178ETHO    O132231  11.316  12.142   5.746
  178ETHO    C132232  11.321  12.066   5.628
  178ETHO   H1132233  11.238  12.104   5.566
  178ETHO   H1332234  11.420  12.074   5.578
  178ETHO    C232235  11.281  11.922   5.651
  178ETHO   H2132236  11.195  11.935   5.720
  178ETHO   H2332237  11.359  11.872   5.712
  179ETHO    O132238  11.234  11.849   5.543
  179ETHO    C132239  11.337  11.813   5.454
  179ETHO   H1132240  11.396  11.727   5.491
  179ETHO   H1332241  11.410  11.896   5.444
  179ETHO    C232242  11.271  11.767   5.323
  179ETHO   H2132243  11.190  11.693   5.339
  179ETHO   H2332244  11.343  11.704   5.267
  180ETHO    O132245  11.233  11.864   5.230
  180ETHO    C132246  11.155  11.814   5.120
  180ETHO   H1132247  11.214  11.786   5.030
  180ETHO   H1332248  11.101  11.720   5.144
  180ETHO    C232249  11.054  11.930   5.083
  180ETHO   H2132250  11.015  11.913   4.980
  180ETHO   H2332251  11.108  12.027   5.085
  181ETHO    O132252  10.937  11.939   5.176
  181ETHO    C132253  10.874  12.065   5.162
  181ETHO   H1132254  10.852  12.084   5.054
  181ETHO   H1332255  10.942  12.139   5.208
  181ETHO    C232256  10.747  12.057   5.249
  181ETHO   H2132257  10.684  12.147   5.260
  181ETHO   H2332258  10.790  12.039   5.350
  182ETHO    O132259  10.671  11.937   5.225
  182ETHO    C132260  10.588  11.945   5.113
  182ETHO   H1132261  10.528  12.038   5.110
  182ETHO   H1332262  10.651  11.957   5.022
  182ETHO    C232263  10.488  11.827   5.100
  182ETHO   H2132264  10.554  11.738   5.092
  182ETHO   H2332265  10.435  11.843   5.004
  183ETHO    O132266  10.396  11.826   5.210
  183ETHO    C132267  10.276  11.753   5.190
  183ETHO   H1132268  10.229  11.761   5.089
  183ETHO   H1332269  10.202  11.789   5.264
  183ETHO    C232270  10.293  11.603   5.229
  183ETHO   H2132271  10.199  11.546   5.242
  183ETHO   H2332272  10.339  11.603   5.331
  184ETHO    O132273  10.378  11.530   5.146
  184ETHO    C132274  10.448  11.429   5.218
  184ETHO   H1132275  10.503  11.468   5.306
  184ETHO   H1332276  10.383  11.347   5.255
  184ETHO    C232277  10.541  11.351   5.111
  184ETHO   H2132278  10.471  11.324   5.030
  184ETHO   H2332279  10.588  11.258   5.151
  185ETHO    O132280  10.645  11.435   5.055
  185ETHO    C132281  10.750  11.351   5.007
  185ETHO   H1132282  10.796  11.304   5.097
  185ETHO   H1332283  10.715  11.266   4.945
  185ETHO    C232284  10.861  11.431   4.937
  185ETHO   H2132285  10.961  11.384   4.925
  185ETHO   H2332286  10.884  11.510   5.012
  186ETHO    O132287  10.823  11.485   4.810
  186ETHO    C132288  10.932  11.550   4.751
  186ETHO   H1132289  10.975  11.625   4.821
  186ETHO   H1332290  11.011  11.479   4.719
  186ETHO    C232291  10.877  11.633   4.634
  186ETHO   H2132292  10.957  11.707   4.613
  186ETHO   H2332293  10.791  11.695   4.668
  187ETHO    O132294  10.841  11.550   4.525
  187ETHO    C132295  10.786  11.623   4.421
  187ETHO   H1132296  10.711  11.564   4.364
  187ETHO   H1332297  10.739  11.713   4.467
  187ETHO    C232298  10.894  11.673   4.327
  187ETHO   H2132299  10.975  11.711   4.393
  187ETHO   H2332300  10.846  11.750   4.262
  188ETHO    O132301  10.934  11.562   4.254
  188ETHO    C132302  11.056  11.589   4.198
  188ETHO   H1132303  11.126  11.613   4.281
  188ETHO   H1332304  11.054  11.683   4.139
  188ETHO    C232305  11.112  11.471   4.125
  188ETHO   H2132306  11.043  11.447   4.041
  188ETHO   H2332307  11.109  11.386   4.196
  189ETHO    O132308  11.246  11.504   4.090
  189ETHO    C132309  11.299  11.406   4.001
  189ETHO   H1132310  11.409  11.411   4.003
  189ETHO   H1332311  11.274  11.306   4.044
  189ETHO    C232312  11.239  11.411   3.858
  189ETHO   H2132313  11.128  11.413   3.854
  189ETHO   H2332314  11.273  11.321   3.802
  190ETHO    O132315  11.293  11.520   3.794
  190ETHO    C132316  11.277  11.518   3.650
  190ETHO   H1132317  11.298  11.420   3.603
  190ETHO   H1332318  11.359  11.588   3.626
  190ETHO    C232319  11.150  11.580   3.600
  190ETHO   H2132320  11.161  11.618   3.497
  190ETHO   H2332321  11.125  11.669   3.662
  191ETHO    O132322  11.038  11.499   3.600
  191ETHO    C132323  11.034  11.419   3.486
  191ETHO   H1132324  11.025  11.495   3.406
  191ETHO   H1332325  11.133  11.373   3.465
  191ETHO    C232326  10.923  11.317   3.469
  191ETHO   H2132327  10.836  11.362   3.522
  191ETHO   H2332328  10.948  11.221   3.519
  192ETHO    O132329  10.909  11.287   3.329
  192ETHO    C132330  10.780  11.257   3.291
  192ETHO   H1132331  10.725  11.351   3.270
  192ETHO   H1332332  10.718  11.203   3.366
  192ETHO    C232333  10.775  11.189   3.152
  192ETHO   H2132334  10.797  11.257   3.068
  192ETHO   H2332335  10.672  11.150   3.152
  193ETHO    O132336  10.854  11.066   3.141
  193ETHO    C132337  10.851  11.009   3.009
  193ETHO   H1132338  10.750  10.971   2.980
  193ETHO   H1332339  10.874  11.097   2.946
  193ETHO    C232340  10.945  10.892   2.995
  193ETHO   H2132341  10.933  10.851   2.893
  193ETHO   H2332342  10.927  10.815   3.073
  194ETHO    O132343  11.080  10.934   3.015
  194ETHO    C132344  11.147  10.945   2.892
  194ETHO   H1132345  11.075  10.998   2.826
  194ETHO   H1332346  11.170  10.842   2.859
  194ETHO    C232347  11.268  11.029   2.899
  194ETHO   H2132348  11.342  10.994   2.974
  194ETHO   H2332349  11.239  11.131   2.933
  195ETHO    O132350  11.328  11.020   2.771
  195ETHO    C132351  11.430  11.119   2.738
  195ETHO   H1132352  11.378  11.216   2.726
  195ETHO   H1332353  11.503  11.132   2.821
  195ETHO    C232354  11.498  11.085   2.603
  195ETHO   H2132355  11.568  11.170   2.591
  195ETHO   H2332356  11.423  11.076   2.521
  196ETHO    O132357  11.576  10.965   2.606
  196ETHO    C132358  11.669  10.967   2.500
  196ETHO   H1132359  11.614  10.969   2.403
  196ETHO   H1332360  11.747  11.045   2.502
  196ETHO    C232361  11.762  10.842   2.521
  196ETHO   H2132362  11.830  10.841   2.433
  196ETHO   H2332363  11.691  10.757   2.522
  197ETHO    O132364  11.840  10.846   2.641
  197ETHO    C132365  11.931  10.733   2.646
  197ETHO   H1132366  11.872  10.639   2.643
  197ETHO   H1332367  11.995  10.732   2.555
  197ETHO    C232368  12.009  10.748   2.769
  197ETHO   H2132369  12.077  10.663   2.791
  197ETHO   H2332370  11.943  10.769   2.856
  198ETHO    O132371  12.087  10.872   2.753
  198ETHO    C132372  12.202  10.867   2.837
  198ETHO   H1132373  12.188  10.814   2.934
  198ETHO   H1332374  12.271  10.808   2.773
  198ETHO    C232375  12.255  11.012   2.828
  198ETHO   H2132376  12.229  11.061   2.732
  198ETHO   H2332377  12.363  11.006   2.854
  199ETHO    O132378  12.169  11.082   2.926
  199ETHO    C132379  12.237  11.189   2.994
  199ETHO   H1132380  12.340  11.155   3.017
  199ETHO   H1332381  12.197  11.195   3.098
  199ETHO    C232382  12.228  11.330   2.930
  199ETHO   H2132383  12.165  11.328   2.838
  199ETHO   H2332384  12.322  11.360   2.879
  200ETHO    O132385  12.182  11.427   3.018
  200ETHO    C132386  12.113  11.536   2.957
  200ETHO   H1132387  12.164  11.561   2.861
  200ETHO   H1332388  12.010  11.498   2.942
  200ETHO    C232389  12.108  11.669   3.030
  200ETHO   H2132390  12.083  11.632   3.131
  200ETHO   H2332391  12.017  11.725   3.001
  201ETHO    O132392  12.233  11.734   3.016
  201ETHO    C132393  12.261  11.840   3.106
  201ETHO   H1132394  12.288  11.801   3.206
  201ETHO   H1332395  12.178  11.914   3.111
  201ETHO    C232396  12.389  11.912   3.055
  201ETHO   H2132397  12.471  11.837   3.056
  201ETHO   H2332398  12.405  11.993   3.129
  202ETHO    O132399  12.374  11.980   2.924
  202ETHO    C132400  12.487  12.057   2.894
  202ETHO   H1132401  12.570  12.038   2.964
  202ETHO   H1332402  12.518  12.022   2.793
  202ETHO    C232403  12.469  12.206   2.873
  202ETHO   H2132404  12.401  12.233   2.789
  202ETHO   H2332405  12.570  12.242   2.843
  203ETHO    O132406  12.422  12.263   2.995
  203ETHO    C132407  12.449  12.399   2.987
  203ETHO   H1132408  12.400  12.445   2.898
  203ETHO   H1332409  12.558  12.408   2.972
  203ETHO    C232410  12.412  12.487   3.103
  203ETHO   H2132411  12.304  12.472   3.123
  203ETHO   H2332412  12.434  12.591   3.072
  204ETHO    O132413  12.496  12.457   3.213
  204ETHO    C132414  12.464  12.513   3.336
  204ETHO   H1132415  12.453  12.622   3.317
  204ETHO   H1332416  12.369  12.463   3.365
  204ETHO    C232417  12.572  12.470   3.445
  204ETHO   H2132418  12.582  12.546   3.525
  204ETHO   H2332419  12.667  12.457   3.388
  205ETHO    O132420  12.538  12.349   3.506
  205ETHO    C132421  12.649  12.293   3.578
  205ETHO   H1132422  12.676  12.368   3.656
  205ETHO   H1332423  12.734  12.287   3.507
  205ETHO    C232424  12.621  12.158   3.641
  205ETHO   H2132425  12.719  12.106   3.654
  205ETHO   H2332426  12.576  12.092   3.564
  206ETHO    O132427  12.558  12.158   3.768
  206ETHO    C132428  12.535  12.028   3.816
  206ETHO   H1132429  12.439  11.989   3.776
  206ETHO   H1332430  12.611  11.961   3.769
  206ETHO    C232431  12.527  12.009   3.964
  206ETHO   H2132432  12.626  12.023   4.011
  206ETHO   H2332433  12.448  12.077   4.004
  207ETHO    O132434  12.506  11.870   3.994
  207ETHO    C132435  12.475  11.855   4.134
  207ETHO   H1132436  12.556  11.904   4.192
  207ETHO   H1332437  12.485  11.746   4.151
  207ETHO    C232438  12.341  11.909   4.183
  207ETHO   H2132439  12.336  12.018   4.162
  207ETHO   H2332440  12.339  11.911   4.294
  208ETHO    O132441  12.235  11.837   4.119
  208ETHO    C132442  12.145  11.792   4.219
  208ETHO   H1132443  12.122  11.876   4.288
  208ETHO   H1332444  12.050  11.759   4.171
  208ETHO    C232445  12.189  11.668   4.308
  208ETHO   H2132446  12.254  11.597   4.253
  208ETHO   H2332447  12.094  11.619   4.337
  209ETHO    O132448  12.254  11.725   4.418
  209ETHO    C132449  12.257  11.641   4.534
  209ETHO   H1132450  12.305  11.542   4.514
  209ETHO   H1332451  12.150  11.622   4.558
  209ETHO    C232452  12.336  11.718   4.632
  209ETHO   H2132453  12.297  11.689   4.732
  209ETHO   H2332454  12.309  11.826   4.627
  210ETHO    O132455  12.472  11.690   4.624
  210ETHO    C132456  12.552  11.778   4.553
  210ETHO   H1132457  12.497  11.791   4.458
  210ETHO   H1332458  12.559  11.863   4.624
  210ETHO    C232459  12.694  11.723   4.522
  210ETHO   H2132460  12.676  11.666   4.428
  210ETHO   H2332461  12.741  11.659   4.598
  211ETHO    O132462  12.775  11.834   4.486
  211ETHO    C132463  12.887  11.784   4.412
  211ETHO   H1132464  12.938  11.731   4.495
  211ETHO   H1332465  12.860  11.715   4.329
  211ETHO    C232466  12.971  11.889   4.348
  211ETHO   H2132467  13.072  11.850   4.321
  211ETHO   H2332468  12.989  11.962   4.430
  212ETHO    O132469  12.917  11.957   4.234
  212ETHO    C132470  12.989  12.077   4.197
  212ETHO   H1132471  12.996  12.145   4.284
  212ETHO   H1332472  13.086  12.054   4.147
  212ETHO    C232473  12.899  12.159   4.104
  212ETHO   H2132474  12.869  12.096   4.017
  212ETHO   H2332475  12.951  12.250   4.069
  213ETHO    O132476  12.787  12.193   4.176
  213ETHO    C132477  12.707  12.291   4.116
  213ETHO   H1132478  12.764  12.368   4.060
  213ETHO   H1332479  12.644  12.237   4.043
  213ETHO    C232480  12.615  12.361   4.218
  213ETHO   H2132481  12.543  12.288   4.262
  213ETHO   H2332482  12.555  12.438   4.165
  214ETHO    O132483  12.699  12.428   4.310
  214ETHO    C132484  12.625  12.524   4.392
  214ETHO   H1132485  12.562  12.461   4.458
  214ETHO   H1332486  12.573  12.597   4.327
  214ETHO    C232487  12.718  12.600   4.498
  214ETHO   H2132488  12.666  12.695   4.523
  214ETHO   H2332489  12.812  12.625   4.445
  215ETHO    O132490  12.748  12.526   4.618
  215ETHO    C132491  12.855  12.588   4.682
  215ETHO   H1132492  12.883  12.526   4.770
  215ETHO   H1332493  12.942  12.582   4.612
  215ETHO    C232494  12.840  12.732   4.720
  215ETHO   H2132495  12.884  12.750   4.820
  215ETHO   H2332496  12.735  12.767   4.731
  216ETHO    O132497  12.873  12.829   4.613
  216ETHO    C132498  13.016  12.839   4.603
  216ETHO   H1132499  13.070  12.760   4.546
  216ETHO   H1332500  13.056  12.841   4.706
  216ETHO    C232501  13.065  12.970   4.543
  216ETHO   H2132502  13.176  12.967   4.541
  216ETHO   H2332503  13.040  13.056   4.609
  217ETHO    O132504  13.012  12.980   4.411
  217ETHO    C132505  13.046  13.100   4.343
  217ETHO   H1132506  13.028  13.186   4.411
  217ETHO   H1332507  13.154  13.086   4.321
  217ETHO    C232508  12.980  13.108   4.208
  217ETHO   H2132509  12.993  13.011   4.156
  217ETHO   H2332510  13.025  13.181   4.138
  218ETHO    O132511  12.843  13.116   4.214
  218ETHO    C132512  12.786  13.106   4.082
  218ETHO   H1132513  12.806  13.005   4.040
  218ETHO   H1332514  12.833  13.184   4.019
  218ETHO    C232515  12.634  13.119   4.101
  218ETHO   H2132516  12.618  13.217   4.151
  218ETHO   H2332517  12.604  13.034   4.166
  219ETHO    O132518  12.574  13.123   3.975
  219ETHO    C132519  12.434  13.105   3.990
  219ETHO   H1132520  12.405  13.029   3.915
  219ETHO   H1332521  12.408  13.072   4.093
  219ETHO    C232522  12.346  13.230   3.962
  219ETHO   H2132523  12.387  13.309   4.029
  219ETHO   H2332524  12.242  13.223   4.000
  220ETHO    O132525  12.340  13.294   3.833
  220ETHO    C132526  12.257  13.224   3.740
  220ETHO   H1132527  12.159  13.207   3.789
  220ETHO   H1332528  12.304  13.129   3.708
  220ETHO    C232529  12.251  13.300   3.610
  220ETHO   H2132530  12.253  13.410   3.618
  220ETHO   H2332531  12.151  13.275   3.568
  221ETHO    O132532  12.358  13.260   3.520
  221ETHO    C132533  12.313  13.175   3.418
  221ETHO   H1132534  12.215  13.214   3.382
  221ETHO   H1332535  12.381  13.182   3.331
  221ETHO    C232536  12.296  13.024   3.458
  221ETHO   H2132537  12.267  12.966   3.368
  221ETHO   H2332538  12.207  13.022   3.526
  222ETHO    O132539  12.408  12.971   3.539
  222ETHO    C132540  12.371  12.859   3.618
  222ETHO   H1132541  12.298  12.896   3.693
  222ETHO   H1332542  12.315  12.794   3.548
  222ETHO    C232543  12.486  12.796   3.694
  222ETHO   H2132544  12.589  12.810   3.653
  222ETHO   H2332545  12.476  12.686   3.684
  223ETHO    O132546  12.495  12.834   3.830
  223ETHO    C132547  12.597  12.770   3.910
  223ETHO   H1132548  12.694  12.785   3.859
  223ETHO   H1332549  12.597  12.816   4.012
  223ETHO    C232550  12.577  12.621   3.927
  223ETHO   H2132551  12.663  12.593   3.991
  223ETHO   H2332552  12.588  12.571   3.829
  224ETHO    O132553  12.462  12.575   4.000
  224ETHO    C132554  12.417  12.444   3.951
  224ETHO   H1132555  12.395  12.454   3.842
  224ETHO   H1332556  12.498  12.368   3.948
  224ETHO    C232557  12.296  12.397   4.026
  224ETHO   H2132558  12.246  12.314   3.973
  224ETHO   H2332559  12.213  12.471   4.023
  225ETHO    O132560  12.321  12.376   4.164
  225ETHO    C132561  12.203  12.344   4.242
  225ETHO   H1132562  12.131  12.270   4.201
  225ETHO   H1332563  12.138  12.434   4.238
  225ETHO    C232564  12.233  12.299   4.387
  225ETHO   H2132565  12.138  12.268   4.437
  225ETHO   H2332566  12.291  12.370   4.450
  226ETHO    O132567  12.308  12.183   4.374
  226ETHO    C132568  12.333  12.128   4.507
  226ETHO   H1132569  12.234  12.123   4.557
  226ETHO   H1332570  12.381  12.029   4.490
  226ETHO    C232571  12.429  12.213   4.597
  226ETHO   H2132572  12.515  12.244   4.533
  226ETHO   H2332573  12.479  12.143   4.667
  227ETHO    O132574  12.367  12.308   4.689
  227ETHO    C132575  12.465  12.386   4.758
  227ETHO   H1132576  12.531  12.427   4.679
  227ETHO   H1332577  12.526  12.319   4.822
  227ETHO    C232578  12.412  12.500   4.841
  227ETHO   H2132579  12.306  12.518   4.814
  227ETHO   H2332580  12.465  12.596   4.821
  228ETHO    O132581  12.418  12.482   4.980
  228ETHO    C132582  12.334  12.378   5.031
  228ETHO   H1132583  12.248  12.366   4.963
  228ETHO   H1332584  12.406  12.294   5.023
  228ETHO    C232585  12.293  12.409   5.174
  228ETHO   H2132586  12.386  12.439   5.227
  228ETHO   H2332587  12.259  12.312   5.215
  229ETHO    O132588  12.189  12.497   5.175
  229ETHO    C132589  12.202  12.573   5.293
  229ETHO   H1132590  12.288  12.640   5.273
  229ETHO   H1332591  12.211  12.508   5.382
  229ETHO    C232592  12.069  12.653   5.318
  229ETHO   H2132593  12.036  12.723   5.238
  229ETHO   H2332594  12.076  12.723   5.403
  230ETHO    O132595  11.957  12.564   5.338
  230ETHO    C132596  11.830  12.615   5.308
  230ETHO   H1132597  11.827  12.713   5.362
  230ETHO   H1332598  11.819  12.624   5.198
  230ETHO    C232599  11.721  12.529   5.356
  230ETHO   H2132600  11.630  12.582   5.320
  230ETHO   H2332601  11.701  12.508   5.464
  231ETHO    O132602  11.729  12.415   5.270
  231ETHO    C132603  11.624  12.331   5.281
  231ETHO   H1132604  11.564  12.345   5.188
  231ETHO   H1332605  11.562  12.362   5.367
  231ETHO    C232606  11.661  12.180   5.305
  231ETHO   H2132607  11.561  12.133   5.321
  231ETHO   H2332608  11.721  12.168   5.398
  232ETHO    O132609  11.721  12.118   5.192
  232ETHO    C132610  11.712  11.980   5.192
  232ETHO   H1132611  11.772  11.955   5.282
  232ETHO   H1332612  11.611  11.944   5.219
  232ETHO    C232613  11.772  11.905   5.073
  232ETHO   H2132614  11.817  11.813   5.116
  232ETHO   H2332615  11.853  11.959   5.021
  233ETHO    O132616  11.674  11.878   4.971
  233ETHO    C132617  11.733  11.798   4.868
  233ETHO   H1132618  11.834  11.761   4.899
  233ETHO   H1332619  11.657  11.718   4.860
  233ETHO    C232620  11.748  11.882   4.741
  233ETHO   H2132621  11.653  11.935   4.721
  233ETHO   H2332622  11.768  11.802   4.666
  234ETHO    O132623  11.854  11.979   4.749
  234ETHO    C132624  11.858  12.051   4.630
  234ETHO   H1132625  11.765  12.110   4.620
  234ETHO   H1332626  11.941  12.124   4.644
  234ETHO    C232627  11.903  11.976   4.501
  234ETHO   H2132628  11.829  11.902   4.463
  234ETHO   H2332629  11.997  11.919   4.517
  235ETHO    O132630  11.940  12.071   4.398
  235ETHO    C132631  11.822  12.114   4.327
  235ETHO   H1132632  11.785  12.046   4.247
  235ETHO   H1332633  11.737  12.129   4.397
  235ETHO    C232634  11.845  12.254   4.257
  235ETHO   H2132635  11.917  12.312   4.318
  235ETHO   H2332636  11.746  12.305   4.256
  236ETHO    O132637  11.901  12.242   4.125
  236ETHO    C132638  11.889  12.366   4.057
  236ETHO   H1132639  11.962  12.431   4.110
  236ETHO   H1332640  11.788  12.413   4.061
  236ETHO    C232641  11.917  12.347   3.911
  236ETHO   H2132642  11.830  12.308   3.854
  236ETHO   H2332643  12.004  12.281   3.886
  237ETHO    O132644  11.963  12.473   3.855
  237ETHO    C132645  12.027  12.459   3.732
  237ETHO   H1132646  12.096  12.372   3.729
  237ETHO   H1332647  11.951  12.453   3.651
  237ETHO    C232648  12.106  12.587   3.695
  237ETHO   H2132649  12.178  12.568   3.613
  237ETHO   H2332650  12.160  12.625   3.785
  238ETHO    O132651  12.018  12.700   3.659
  238ETHO    C132652  12.010  12.712   3.519
  238ETHO   H1132653  11.998  12.611   3.474
  238ETHO   H1332654  12.109  12.742   3.477
  238ETHO    C232655  11.909  12.809   3.469
  238ETHO   H2132656  11.927  12.911   3.510
  238ETHO   H2332657  11.805  12.776   3.490
  239ETHO    O132658  11.915  12.826   3.333
  239ETHO    C132659  11.844  12.944   3.295
  239ETHO   H1132660  11.747  12.944   3.350
  239ETHO   H1332661  11.900  13.033   3.329
  239ETHO    C232662  11.825  12.944   3.144
  239ETHO   H2132663  11.754  12.864   3.114
  239ETHO   H2332664  11.783  13.043   3.115
  240ETHO    O132665  11.949  12.928   3.076
  240ETHO    C132666  11.928  12.890   2.944
  240ETHO   H1132667  11.838  12.941   2.903
  240ETHO   H1332668  11.897  12.785   2.961
  240ETHO    C232669  12.052  12.901   2.852
  240ETHO   H2132670  12.146  12.887   2.909
  240ETHO   H2332671  12.060  13.006   2.816
  241ETHO    O132672  12.048  12.804   2.746
  241ETHO    C132673  12.156  12.822   2.664
  241ETHO   H1132674  12.160  12.929   2.636
  241ETHO   H1332675  12.248  12.803   2.725
  241ETHO    C232676  12.166  12.748   2.537
  241ETHO   H2132677  12.074  12.750   2.475
  241ETHO   H2332678  12.187  12.639   2.533
  242ETHO    O132679  12.270  12.811   2.462
  242ETHO    C132680  12.286  12.745   2.338
  242ETHO   H1132681  12.217  12.770   2.254
  242ETHO   H1332682  12.273  12.637   2.360
  242ETHO    C232683  12.421  12.768   2.284
  242ETHO   H2132684  12.432  12.699   2.197
  242ETHO   H2332685  12.498  12.735   2.357
  243ETHO    O132686  12.449  12.906   2.256
  243ETHO    C132687  12.583  12.939   2.243
  243ETHO   H1132688  12.592  13.049   2.226
  243ETHO   H1332689  12.624  12.904   2.339
  243ETHO    C232690  12.667  12.870   2.130
  243ETHO   H2132691  12.661  12.761   2.147
  243ETHO   H2332692  12.771  12.910   2.139
  244ETHO    O132693  12.629  12.901   2.000
  244ETHO    C132694  12.742  12.887   1.909
  244ETHO   H1132695  12.797  12.790   1.917
  244ETHO   H1332696  12.824  12.953   1.945
  244ETHO    C232697  12.721  12.930   1.765
  244ETHO   H2132698  12.808  12.899   1.702
  244ETHO   H2332699  12.731  13.040   1.752
  245ETHO    O132700  12.603  12.902   1.699
  245ETHO    C132701  12.596  12.767   1.666
  245ETHO   H1132702  12.684  12.746   1.601
  245ETHO   H1332703  12.611  12.698   1.752
  245ETHO    C232704  12.458  12.741   1.603
  245ETHO   H2132705  12.381  12.749   1.683
  245ETHO   H2332706  12.463  12.635   1.570
  246ETHO    O132707  12.409  12.827   1.502
  246ETHO    C132708  12.305  12.762   1.425
  246ETHO   H1132709  12.226  12.703   1.477
  246ETHO   H1332710  12.359  12.694   1.355
  246ETHO    C232711  12.227  12.883   1.351
  246ETHO   H2132712  12.167  12.829   1.275
  246ETHO   H2332713  12.305  12.941   1.297
  247ETHO    O132714  12.147  12.970   1.429
  247ETHO    C132715  12.076  13.077   1.354
  247ETHO   H1132716  11.991  13.024   1.305
  247ETHO   H1332717  12.010  13.133   1.424
  247ETHO    C232718  12.150  13.179   1.260
  247ETHO   H2132719  12.252  13.200   1.299
  247ETHO   H2332720  12.166  13.139   1.158
  248ETHO    O132721  12.098  13.307   1.248
  248ETHO    C132722  11.992  13.331   1.154
  248ETHO   H1132723  12.005  13.433   1.110
  248ETHO   H1332724  11.992  13.251   1.077
  248ETHO    C232725  11.849  13.324   1.219
  248ETHO   H2132726  11.772  13.378   1.160
  248ETHO   H2332727  11.851  13.376   1.317
  249ETHO    O132728  11.795  13.188   1.215
  249ETHO    C132729  11.665  13.187   1.273
  249ETHO   H1132730  11.668  13.236   1.373
  249ETHO   H1332731  11.602  13.249   1.205
  249ETHO    C232732  11.596  13.049   1.280
  249ETHO   H2132733  11.620  12.990   1.189
  249ETHO   H2332734  11.487  13.066   1.291
  250ETHO    O132735  11.656  12.982   1.397
  250ETHO    C132736  11.625  12.839   1.403
  250ETHO   H1132737  11.518  12.810   1.406
  250ETHO   H1332738  11.666  12.786   1.314
  250ETHO    C232739  11.701  12.772   1.520
  250ETHO   H2132740  11.810  12.783   1.500
  250ETHO   H2332741  11.669  12.665   1.523
  251ETHO    O132742  11.661  12.831   1.641
  251ETHO    C132743  11.761  12.808   1.742
  251ETHO   H1132744  11.852  12.870   1.724
  251ETHO   H1332745  11.798  12.705   1.724
  251ETHO    C232746  11.696  12.813   1.887
  251ETHO   H2132747  11.761  12.759   1.959
  251ETHO   H2332748  11.591  12.779   1.888
  252ETHO    O132749  11.702  12.948   1.924
  252ETHO    C132750  11.595  12.998   2.003
  252ETHO   H1132751  11.496  12.990   1.952
  252ETHO   H1332752  11.586  12.936   2.095
  252ETHO    C232753  11.634  13.139   2.052
  252ETHO   H2132754  11.552  13.183   2.112
  252ETHO   H2332755  11.641  13.207   1.964
  253ETHO    O132756  11.754  13.143   2.131
  253ETHO    C132757  11.730  13.124   2.264
  253ETHO   H1132758  11.695  13.021   2.284
  253ETHO   H1332759  11.656  13.197   2.304
  253ETHO    C232760  11.873  13.139   2.324
  253ETHO   H2132761  11.945  13.099   2.250
  253ETHO   H2332762  11.867  13.076   2.415
  254ETHO    O132763  11.904  13.270   2.370
  254ETHO    C132764  11.928  13.360   2.260
  254ETHO   H1132765  11.994  13.303   2.190
  254ETHO   H1332766  11.837  13.387   2.203
  254ETHO    C232767  12.019  13.477   2.301
  254ETHO   H2132768  12.084  13.494   2.213
  254ETHO   H2332769  12.090  13.454   2.384
  255ETHO    O132770  11.949  13.595   2.323
  255ETHO    C132771  12.036  13.709   2.362
  255ETHO   H1132772  12.106  13.724   2.277
  255ETHO   H1332773  12.094  13.689   2.455
  255ETHO    C232774  11.927  13.814   2.392
  255ETHO   H2132775  11.859  13.818   2.305
  255ETHO   H2332776  11.969  13.916   2.406
  256ETHO    O132777  11.859  13.786   2.513
  256ETHO    C132778  11.886  13.875   2.619
  256ETHO   H1132779  11.872  13.981   2.589
  256ETHO   H1332780  11.815  13.863   2.703
  256ETHO    C232781  12.034  13.871   2.674
  256ETHO   H2132782  12.048  13.964   2.733
  256ETHO   H2332783  12.110  13.884   2.594
  257ETHO    O132784  12.054  13.750   2.744
  257ETHO    C132785  12.195  13.740   2.774
  257ETHO   H1132786  12.213  13.826   2.842
  257ETHO   H1332787  12.258  13.764   2.686
  257ETHO    C232788  12.238  13.611   2.831
  257ETHO   H2132789  12.190  13.589   2.929
  257ETHO   H2332790  12.347  13.618   2.852
  258ETHO    O132791  12.207  13.520   2.728
  258ETHO    C132792  12.245  13.383   2.760
  258ETHO   H1132793  12.354  13.369   2.772
  258ETHO   H1332794  12.210  13.369   2.864
  258ETHO    C232795  12.197  13.281   2.654
  258ETHO   H2132796  12.097  13.311   2.615
  258ETHO   H2332797  12.171  13.192   2.715
  259ETHO    O132798  12.281  13.260   2.545
  259ETHO    C132799  12.228  13.164   2.458
  259ETHO   H1132800  12.248  13.062   2.497
  259ETHO   H1332801  12.121  13.177   2.431
  259ETHO    C232802  12.304  13.164   2.323
  259ETHO   H2132803  12.278  13.071   2.269
  259ETHO   H2332804  12.412  13.172   2.349
  260ETHO    O132805  12.263  13.263   2.235
  260ETHO    C132806  12.361  13.281   2.141
  260ETHO   H1132807  12.446  13.344   2.173
  260ETHO   H1332808  12.402  13.179   2.129
  260ETHO    C232809  12.295  13.327   2.003
  260ETHO   H2132810  12.214  13.257   1.974
  260ETHO   H2332811  12.373  13.320   1.924
  261ETHO    O132812  12.236  13.455   2.020
  261ETHO    C132813  12.188  13.503   1.896
  261ETHO   H1132814  12.274  13.547   1.841
  261ETHO   H1332815  12.139  13.426   1.834
  261ETHO    C232816  12.107  13.630   1.921
  261ETHO   H2132817  12.172  13.718   1.943
  261ETHO   H2332818  12.040  13.605   2.006
  262ETHO    O132819  12.029  13.659   1.807
  262ETHO    C132820  11.932  13.765   1.826
  262ETHO   H1132821  11.889  13.764   1.928
  262ETHO   H1332822  11.842  13.752   1.762
  262ETHO    C232823  11.992  13.910   1.810
  262ETHO   H2132824  12.069  13.931   1.889
  262ETHO   H2332825  11.904  13.973   1.836
  263ETHO    O132826  12.035  13.943   1.676
  263ETHO    C132827  12.089  14.071   1.668
  263ETHO   H1132828  12.036  14.140   1.738
  263ETHO   H1332829  12.059  14.105   1.567
  263ETHO    C232830  12.240  14.073   1.670
  263ETHO   H2132831  12.276  14.178   1.681
  263ETHO   H2332832  12.272  14.026   1.574
  264ETHO    O132833  12.290  14.000   1.787
  264ETHO    C132834  12.341  13.872   1.751
  264ETHO   H1132835  12.398  13.867   1.655
  264ETHO   H1332836  12.261  13.800   1.723
  264ETHO    C232837  12.430  13.814   1.867
  264ETHO   H2132838  12.503  13.896   1.884
  264ETHO   H2332839  12.479  13.726   1.820
  265ETHO    O132840  12.370  13.796   1.994
  265ETHO    C132841  12.463  13.752   2.100
  265ETHO   H1132842  12.529  13.675   2.053
  265ETHO   H1332843  12.517  13.843   2.134
  265ETHO    C232844  12.408  13.680   2.229
  265ETHO   H2132845  12.354  13.590   2.195
  265ETHO   H2332846  12.327  13.744   2.270
  265ETHO    OZ32847  12.517  13.654   2.315
  265ETHO   HZ132848  12.474  13.592   2.375
    1ETHO    O132849  19.863  15.019  17.894
    1ETHO   HO132850  19.946  15.016  17.943
    1ETHO    C132851  19.836  14.914  17.808
    1ETHO   H1132852  19.833  14.818  17.865
    1ETHO   H1332853  19.918  14.900  17.733
    1ETHO    C232854  19.689  14.909  17.746
    1ETHO   H2132855  19.627  14.928  17.836
    1ETHO   H2332856  19.660  14.812  17.700
    2ETHO    O132857  19.664  15.003  17.642
    2ETHO    C132858  19.753  14.979  17.532
    2ETHO   H1132859  19.855  15.008  17.564
    2ETHO   H1332860  19.728  14.876  17.498
    2ETHO    C232861  19.719  15.077  17.419
    2ETHO   H2132862  19.807  15.071  17.351
    2ETHO   H2332863  19.732  15.180  17.460
    3ETHO    O132864  19.599  15.054  17.349
    3ETHO    C132865  19.622  14.956  17.245
    3ETHO   H1132866  19.636  14.857  17.292
    3ETHO   H1332867  19.718  14.988  17.198
    3ETHO    C232868  19.516  14.951  17.128
    3ETHO   H2132869  19.562  14.911  17.036
    3ETHO   H2332870  19.481  15.054  17.105
    4ETHO    O132871  19.402  14.868  17.155
    4ETHO    C132872  19.299  14.925  17.237
    4ETHO   H1132873  19.233  14.843  17.272
    4ETHO   H1332874  19.339  14.977  17.327
    4ETHO    C232875  19.210  15.008  17.148
    4ETHO   H2132876  19.271  15.100  17.135
    4ETHO   H2332877  19.117  15.032  17.204
    5ETHO    O132878  19.163  14.950  17.029
    5ETHO    C132879  19.059  15.012  16.958
    5ETHO   H1132880  18.965  15.011  17.017
    5ETHO   H1332881  19.090  15.112  16.920
    5ETHO    C232882  19.028  14.930  16.831
    5ETHO   H2132883  18.919  14.939  16.811
    5ETHO   H2332884  19.046  14.825  16.861
    6ETHO    O132885  19.095  14.951  16.708
    6ETHO    C132886  19.057  14.864  16.607
    6ETHO   H1132887  19.135  14.787  16.594
    6ETHO   H1332888  18.964  14.807  16.628
    6ETHO    C232889  19.011  14.937  16.476
    6ETHO   H2132890  18.978  14.857  16.406
    6ETHO   H2332891  19.109  14.986  16.459
    7ETHO    O132892  18.904  15.027  16.509
    7ETHO    C132893  18.837  15.093  16.401
    7ETHO   H1132894  18.909  15.175  16.379
    7ETHO   H1332895  18.814  15.013  16.328
    7ETHO    C232896  18.702  15.156  16.449
    7ETHO   H2132897  18.656  15.226  16.376
    7ETHO   H2332898  18.724  15.214  16.542
    8ETHO    O132899  18.619  15.051  16.495
    8ETHO    C132900  18.484  15.082  16.485
    8ETHO   H1132901  18.462  15.099  16.378
    8ETHO   H1332902  18.456  15.166  16.552
    8ETHO    C232903  18.390  14.967  16.533
    8ETHO   H2132904  18.418  14.878  16.473
    8ETHO   H2332905  18.282  14.993  16.521
    9ETHO    O132906  18.400  14.966  16.676
    9ETHO    C132907  18.301  14.882  16.742
    9ETHO   H1132908  18.196  14.897  16.708
    9ETHO   H1332909  18.319  14.773  16.733
    9ETHO    C232910  18.312  14.914  16.892
    9ETHO   H2132911  18.311  15.024  16.904
    9ETHO   H2332912  18.406  14.864  16.926
   10ETHO    O132913  18.215  14.863  16.981
   10ETHO    C132914  18.212  14.941  17.102
   10ETHO   H1132915  18.158  15.035  17.075
   10ETHO   H1332916  18.318  14.957  17.130
   10ETHO    C232917  18.143  14.864  17.208
   10ETHO   H2132918  18.116  14.765  17.165
   10ETHO   H2332919  18.055  14.920  17.245
   11ETHO    O132920  18.222  14.852  17.321
   11ETHO    C132921  18.161  14.789  17.435
   11ETHO   H1132922  18.203  14.830  17.529
   11ETHO   H1332923  18.051  14.805  17.422
   11ETHO    C232924  18.182  14.635  17.440
   11ETHO   H2132925  18.127  14.593  17.527
   11ETHO   H2332926  18.144  14.586  17.348
   12ETHO    O132927  18.317  14.593  17.473
   12ETHO    C132928  18.348  14.468  17.423
   12ETHO   H1132929  18.320  14.461  17.315
   12ETHO   H1332930  18.280  14.389  17.460
   12ETHO    C232931  18.490  14.425  17.442
   12ETHO   H2132932  18.553  14.504  17.396
   12ETHO   H2332933  18.508  14.336  17.378
   13ETHO    O132934  18.534  14.392  17.571
   13ETHO    C132935  18.673  14.394  17.580
   13ETHO   H1132936  18.710  14.315  17.512
   13ETHO   H1332937  18.715  14.493  17.552
   13ETHO    C232938  18.712  14.365  17.725
   13ETHO   H2132939  18.821  14.359  17.743
   13ETHO   H2332940  18.671  14.269  17.764
   14ETHO    O132941  18.672  14.481  17.801
   14ETHO    C132942  18.730  14.500  17.931
   14ETHO   H1132943  18.835  14.462  17.926
   14ETHO   H1332944  18.686  14.423  17.998
   14ETHO    C232945  18.715  14.640  17.993
   14ETHO   H2132946  18.751  14.629  18.098
   14ETHO   H2332947  18.610  14.676  17.999
   15ETHO    O132948  18.789  14.743  17.922
   15ETHO    C132949  18.792  14.869  17.988
   15ETHO   H1132950  18.828  14.856  18.092
   15ETHO   H1332951  18.866  14.928  17.929
   15ETHO    C232952  18.650  14.936  17.983
   15ETHO   H2132953  18.662  15.042  18.013
   15ETHO   H2332954  18.605  14.930  17.882
   16ETHO    O132955  18.560  14.876  18.071
   16ETHO    C132956  18.426  14.918  18.043
   16ETHO   H1132957  18.413  15.028  18.028
   16ETHO   H1332958  18.397  14.858  17.955
   16ETHO    C232959  18.343  14.874  18.161
   16ETHO   H2132960  18.374  14.770  18.182
   16ETHO   H2332961  18.234  14.860  18.142
   17ETHO    O132962  18.373  14.960  18.266
   17ETHO    C132963  18.323  14.909  18.391
   17ETHO   H1132964  18.212  14.902  18.388
   17ETHO   H1332965  18.365  14.810  18.416
   17ETHO    C232966  18.371  14.990  18.511
   17ETHO   H2132967  18.482  14.997  18.513
   17ETHO   H2332968  18.332  14.947  18.606
   18ETHO    O132969  18.305  15.118  18.522
   18ETHO    C132970  18.354  15.188  18.638
   18ETHO   H1132971  18.317  15.128  18.724
   18ETHO   H1332972  18.464  15.171  18.637
   18ETHO    C232973  18.305  15.329  18.634
   18ETHO   H2132974  18.314  15.365  18.739
   18ETHO   H2332975  18.197  15.327  18.609
   19ETHO    O132976  18.375  15.421  18.549
   19ETHO    C132977  18.288  15.501  18.462
   19ETHO   H1132978  18.207  15.554  18.518
   19ETHO   H1332979  18.228  15.430  18.401
   19ETHO    C232980  18.377  15.599  18.377
   19ETHO   H2132981  18.327  15.634  18.284
   19ETHO   H2332982  18.477  15.559  18.352
   20ETHO    O132983  18.400  15.725  18.449
   20ETHO    C132984  18.485  15.811  18.377
   20ETHO   H1132985  18.583  15.758  18.371
   20ETHO   H1332986  18.442  15.837  18.278
   20ETHO    C232987  18.521  15.938  18.448
   20ETHO   H2132988  18.429  15.999  18.461
   20ETHO   H2332989  18.591  15.999  18.387
   21ETHO    O132990  18.587  15.905  18.569
   21ETHO    C132991  18.665  16.015  18.622
   21ETHO   H1132992  18.603  16.099  18.659
   21ETHO   H1332993  18.724  16.066  18.542
   21ETHO    C232994  18.750  15.973  18.737
   21ETHO   H2132995  18.688  15.929  18.819
   21ETHO   H2332996  18.803  16.061  18.780
   22ETHO    O132997  18.851  15.877  18.698
   22ETHO    C132998  18.823  15.754  18.757
   22ETHO   H1132999  18.785  15.764  18.861
   22ETHO   H1333000  18.750  15.701  18.693
   22ETHO    C233001  18.941  15.658  18.766
   22ETHO   H2133002  19.024  15.723  18.800
   22ETHO   H2333003  18.922  15.587  18.850
   23ETHO    O133004  18.970  15.591  18.640
   23ETHO    C133005  19.103  15.529  18.639
   23ETHO   H1133006  19.078  15.434  18.691
   23ETHO   H1333007  19.171  15.603  18.686
   23ETHO    C233008  19.129  15.487  18.499
   23ETHO   H2133009  19.171  15.576  18.448
   23ETHO   H2333010  19.031  15.448  18.464
   24ETHO    O133011  19.221  15.378  18.505
   24ETHO    C133012  19.246  15.317  18.375
   24ETHO   H1133013  19.240  15.207  18.387
   24ETHO   H1333014  19.159  15.339  18.310
   24ETHO    C233015  19.375  15.371  18.302
   24ETHO   H2133016  19.467  15.334  18.352
   24ETHO   H2333017  19.379  15.482  18.300
   25ETHO    O133018  19.388  15.350  18.160
   25ETHO    C133019  19.421  15.207  18.139
   25ETHO   H1133020  19.395  15.187  18.033
   25ETHO   H1333021  19.364  15.145  18.211
   25ETHO    C233022  19.571  15.184  18.156
   25ETHO   H2133023  19.618  15.269  18.210
   25ETHO   H2333024  19.623  15.173  18.058
   26ETHO    O133025  19.604  15.069  18.245
   26ETHO    C133026  19.737  15.026  18.223
   26ETHO   H1133027  19.753  15.010  18.114
   26ETHO   H1333028  19.814  15.094  18.265
   26ETHO    C233029  19.759  14.887  18.284
   26ETHO   H2133030  19.729  14.884  18.390
   26ETHO   H2333031  19.866  14.859  18.270
   27ETHO    O133032  19.696  14.783  18.217
   27ETHO    C133033  19.723  14.655  18.272
   27ETHO   H1133034  19.704  14.640  18.380
   27ETHO   H1333035  19.832  14.636  18.272
   27ETHO    C233036  19.649  14.543  18.206
   27ETHO   H2133037  19.676  14.442  18.244
   27ETHO   H2333038  19.666  14.540  18.096
   28ETHO    O133039  19.502  14.548  18.219
   28ETHO    C133040  19.440  14.473  18.117
   28ETHO   H1133041  19.473  14.523  18.024
   28ETHO   H1333042  19.494  14.376  18.124
   28ETHO    C233043  19.285  14.454  18.147
   28ETHO   H2133044  19.288  14.424  18.254
   28ETHO   H2333045  19.242  14.380  18.077
   29ETHO    O133046  19.223  14.578  18.125
   29ETHO    C133047  19.085  14.567  18.118
   29ETHO   H1133048  19.055  14.499  18.035
   29ETHO   H1333049  19.052  14.669  18.090
   29ETHO    C233050  19.014  14.531  18.252
   29ETHO   H2133051  18.908  14.559  18.241
   29ETHO   H2333052  19.055  14.597  18.332
   30ETHO    O133053  19.033  14.393  18.279
   30ETHO    C133054  18.965  14.334  18.395
   30ETHO   H1133055  19.024  14.243  18.418
   30ETHO   H1333056  18.985  14.401  18.482
   30ETHO    C233057  18.820  14.306  18.367
   30ETHO   H2133058  18.780  14.234  18.442
   30ETHO   H2333059  18.810  14.249  18.273
   31ETHO    O133060  18.739  14.417  18.362
   31ETHO    C133061  18.592  14.396  18.368
   31ETHO   H1133062  18.564  14.344  18.274
   31ETHO   H1333063  18.554  14.336  18.453
   31ETHO    C233064  18.515  14.528  18.375
   31ETHO   H2133065  18.408  14.505  18.357
   31ETHO   H2333066  18.551  14.601  18.299
   32ETHO    O133067  18.516  14.601  18.496
   32ETHO    C133068  18.414  14.567  18.581
   32ETHO   H1133069  18.318  14.594  18.532
   32ETHO   H1333070  18.415  14.457  18.602
   32ETHO    C233071  18.424  14.646  18.711
   32ETHO   H2133072  18.332  14.643  18.774
   32ETHO   H2333073  18.452  14.750  18.685
   33ETHO    O133074  18.529  14.605  18.798
   33ETHO    C133075  18.554  14.706  18.891
   33ETHO   H1133076  18.636  14.656  18.948
   33ETHO   H1333077  18.598  14.790  18.833
   33ETHO    C233078  18.438  14.745  18.986
   33ETHO   H2133079  18.479  14.741  19.089
   33ETHO   H2333080  18.358  14.667  18.986
   34ETHO    O133081  18.393  14.877  18.960
   34ETHO    C133082  18.293  14.917  19.047
   34ETHO   H1133083  18.315  14.878  19.149
   34ETHO   H1333084  18.202  14.873  19.000
   34ETHO    C233085  18.276  15.072  19.041
   34ETHO   H2133086  18.200  15.093  19.119
   34ETHO   H2333087  18.250  15.111  18.940
   35ETHO    O133088  18.396  15.129  19.074
   35ETHO    C133089  18.393  15.268  19.072
   35ETHO   H1133090  18.332  15.305  18.987
   35ETHO   H1333091  18.367  15.317  19.169
   35ETHO    C233092  18.527  15.339  19.040
   35ETHO   H2133093  18.605  15.293  19.104
   35ETHO   H2333094  18.510  15.449  19.037
   36ETHO    O133095  18.561  15.312  18.903
   36ETHO    C133096  18.687  15.348  18.868
   36ETHO   H1133097  18.748  15.260  18.899
   36ETHO   H1333098  18.723  15.435  18.927
   36ETHO    C233099  18.714  15.386  18.721
   36ETHO   H2133100  18.810  15.438  18.698
   36ETHO   H2333101  18.640  15.459  18.683
   37ETHO    O133102  18.715  15.266  18.647
   37ETHO    C133103  18.742  15.293  18.509
   37ETHO   H1133104  18.668  15.362  18.463
   37ETHO   H1333105  18.844  15.337  18.503
   37ETHO    C233106  18.740  15.169  18.420
   37ETHO   H2133107  18.763  15.197  18.315
   37ETHO   H2333108  18.639  15.122  18.425
   38ETHO    O133109  18.841  15.073  18.455
   38ETHO    C133110  18.865  14.977  18.356
   38ETHO   H1133111  18.883  15.026  18.258
   38ETHO   H1333112  18.772  14.917  18.350
   38ETHO    C233113  18.978  14.875  18.387
   38ETHO   H2133114  18.963  14.787  18.320
   38ETHO   H2333115  18.970  14.836  18.491
   39ETHO    O133116  19.110  14.925  18.368
   39ETHO    C133117  19.208  14.823  18.403
   39ETHO   H1133118  19.181  14.773  18.499
   39ETHO   H1333119  19.219  14.754  18.317
   39ETHO    C233120  19.346  14.884  18.415
   39ETHO   H2133121  19.358  14.969  18.344
   39ETHO   H2333122  19.418  14.802  18.394
   40ETHO    O133123  19.357  14.935  18.549
   40ETHO    C133124  19.451  15.043  18.568
   40ETHO   H1133125  19.470  15.092  18.470
   40ETHO   H1333126  19.547  14.991  18.592
   40ETHO    C233127  19.405  15.143  18.669
   40ETHO   H2133128  19.298  15.159  18.642
   40ETHO   H2333129  19.461  15.239  18.669
   41ETHO    O133130  19.416  15.089  18.802
   41ETHO    C133131  19.357  15.174  18.900
   41ETHO   H1133132  19.274  15.228  18.850
   41ETHO   H1333133  19.321  15.113  18.986
   41ETHO    C233134  19.462  15.267  18.960
   41ETHO   H2133135  19.486  15.353  18.894
   41ETHO   H2333136  19.560  15.217  18.974
   42ETHO    O133137  19.428  15.325  19.087
   42ETHO    C133138  19.528  15.412  19.140
   42ETHO   H1133139  19.619  15.397  19.079
   42ETHO   H1333140  19.493  15.510  19.102
   42ETHO    C233141  19.549  15.402  19.290
   42ETHO   H2133142  19.448  15.387  19.334
   42ETHO   H2333143  19.590  15.492  19.340
   43ETHO    O133144  19.623  15.283  19.317
   43ETHO    C133145  19.759  15.304  19.299
   43ETHO   H1133146  19.788  15.403  19.259
   43ETHO   H1333147  19.810  15.292  19.397
   43ETHO    C233148  19.823  15.196  19.218
   43ETHO   H2133149  19.903  15.243  19.158
   43ETHO   H2333150  19.740  15.152  19.157
   44ETHO    O133151  19.876  15.091  19.296
   44ETHO    C133152  19.950  15.001  19.222
   44ETHO   H1133153  19.895  14.960  19.135
   44ETHO   H1333154  20.042  15.058  19.193
   44ETHO    C233155  19.997  14.880  19.307
   44ETHO   H2133156  20.046  14.802  19.246
   44ETHO   H2333157  19.900  14.844  19.346
   45ETHO    O133158  20.091  14.911  19.416
   45ETHO    C133159  20.081  14.803  19.511
   45ETHO   H1133160  20.059  14.714  19.449
   45ETHO   H1333161  19.988  14.828  19.567
   45ETHO    C233162  20.201  14.791  19.603
   45ETHO   H2133163  20.181  14.718  19.683
   45ETHO   H2333164  20.200  14.890  19.653
   46ETHO    O133165  20.321  14.760  19.542
   46ETHO    C133166  20.323  14.622  19.508
   46ETHO   H1133167  20.271  14.553  19.577
   46ETHO   H1333168  20.259  14.611  19.418
   46ETHO    C233169  20.468  14.575  19.471
   46ETHO   H2133170  20.468  14.465  19.479
   46ETHO   H2333171  20.547  14.616  19.538
   47ETHO    O133172  20.506  14.608  19.337
   47ETHO    C133173  20.648  14.591  19.312
   47ETHO   H1133174  20.705  14.628  19.400
   47ETHO   H1333175  20.665  14.653  19.222
   47ETHO    C233176  20.691  14.444  19.266
   47ETHO   H2133177  20.790  14.453  19.218
   47ETHO   H2333178  20.622  14.408  19.186
   48ETHO    O133179  20.692  14.337  19.368
   48ETHO    C133180  20.812  14.323  19.448
   48ETHO   H1133181  20.902  14.313  19.384
   48ETHO   H1333182  20.835  14.413  19.508
   48ETHO    C233183  20.805  14.209  19.546
   48ETHO   H2133184  20.872  14.227  19.633
   48ETHO   H2333185  20.707  14.213  19.599
   49ETHO    O133186  20.831  14.074  19.501
   49ETHO    C133187  20.783  13.975  19.597
   49ETHO   H1133188  20.680  13.999  19.632
   49ETHO   H1333189  20.856  13.968  19.680
   49ETHO    C233190  20.786  13.839  19.534
   49ETHO   H2133191  20.766  13.767  19.617
   49ETHO   H2333192  20.885  13.825  19.487
   50ETHO    O133193  20.682  13.822  19.440
   50ETHO    C133194  20.648  13.682  19.413
   50ETHO   H1133195  20.640  13.627  19.508
   50ETHO   H1333196  20.548  13.681  19.365
   50ETHO    C233197  20.739  13.610  19.313
   50ETHO   H2133198  20.709  13.504  19.322
   50ETHO   H2333199  20.845  13.625  19.346
   51ETHO    O133200  20.723  13.635  19.174
   51ETHO    C133201  20.820  13.553  19.103
   51ETHO   H1133202  20.850  13.460  19.156
   51ETHO   H1333203  20.912  13.614  19.098
   51ETHO    C233204  20.778  13.519  18.963
   51ETHO   H2133205  20.696  13.444  18.968
   51ETHO   H2333206  20.865  13.468  18.916
   52ETHO    O133207  20.750  13.639  18.892
   52ETHO    C133208  20.699  13.606  18.757
   52ETHO   H1133209  20.655  13.505  18.753
   52ETHO   H1333210  20.614  13.673  18.733
   52ETHO    C233211  20.810  13.603  18.650
   52ETHO   H2133212  20.765  13.569  18.554
   52ETHO   H2333213  20.892  13.535  18.680
   53ETHO    O133214  20.869  13.733  18.636
   53ETHO    C133215  20.937  13.754  18.510
   53ETHO   H1133216  21.018  13.678  18.508
   53ETHO   H1333217  20.867  13.736  18.425
   53ETHO    C233218  20.983  13.900  18.499
   53ETHO   H2133219  21.053  13.911  18.414
   53ETHO   H2333220  21.034  13.939  18.590
   54ETHO    O133221  20.864  13.981  18.473
   54ETHO    C133222  20.897  14.118  18.454
   54ETHO   H1133223  20.922  14.157  18.555
   54ETHO   H1333224  20.980  14.126  18.380
   54ETHO    C233225  20.779  14.195  18.397
   54ETHO   H2133226  20.780  14.302  18.427
   54ETHO   H2333227  20.688  14.155  18.447
   55ETHO    O133228  20.761  14.202  18.258
   55ETHO    C133229  20.617  14.216  18.225
   55ETHO   H1133230  20.561  14.126  18.259
   55ETHO   H1333231  20.569  14.306  18.269
   55ETHO    C233232  20.615  14.237  18.070
   55ETHO   H2133233  20.671  14.157  18.017
   55ETHO   H2333234  20.510  14.243  18.036
   56ETHO    O133235  20.670  14.365  18.034
   56ETHO    C133236  20.633  14.418  17.906
   56ETHO   H1133237  20.525  14.446  17.910
   56ETHO   H1333238  20.647  14.340  17.828
   56ETHO    C233239  20.717  14.543  17.876
   56ETHO   H2133240  20.694  14.562  17.769
   56ETHO   H2333241  20.825  14.516  17.872
   57ETHO    O133242  20.694  14.652  17.961
   57ETHO    C133243  20.821  14.713  17.989
   57ETHO   H1133244  20.887  14.642  18.043
   57ETHO   H1333245  20.874  14.745  17.897
   57ETHO    C233246  20.807  14.835  18.075
   57ETHO   H2133247  20.908  14.873  18.098
   57ETHO   H2333248  20.760  14.810  18.172
   58ETHO    O133249  20.725  14.932  18.023
   58ETHO    C133250  20.745  15.065  18.073
   58ETHO   H1133251  20.715  15.061  18.180
   58ETHO   H1333252  20.659  15.121  18.031
   58ETHO    C233253  20.882  15.132  18.047
   58ETHO   H2133254  20.865  15.241  18.061
   58ETHO   H2333255  20.914  15.107  17.944
   59ETHO    O133256  20.992  15.087  18.131
   59ETHO    C133257  21.107  15.162  18.105
   59ETHO   H1133258  21.150  15.131  18.007
   59ETHO   H1333259  21.078  15.270  18.099
   59ETHO    C233260  21.207  15.146  18.216
   59ETHO   H2133261  21.182  15.181  18.318
   59ETHO   H2333262  21.301  15.196  18.184
   60ETHO    O133263  21.259  15.017  18.214
   60ETHO    C133264  21.373  14.996  18.298
   60ETHO   H1133265  21.368  15.029  18.404
   60ETHO   H1333266  21.453  15.052  18.245
   60ETHO    C233267  21.404  14.846  18.293
   60ETHO   H2133268  21.507  14.831  18.331
   60ETHO   H2333269  21.405  14.807  18.189
   61ETHO    O133270  21.326  14.756  18.368
   61ETHO    C133271  21.182  14.753  18.339
   61ETHO   H1133272  21.127  14.839  18.382
   61ETHO   H1333273  21.169  14.762  18.229
   61ETHO    C233274  21.131  14.622  18.390
   61ETHO   H2133275  21.200  14.539  18.367
   61ETHO   H2333276  21.035  14.601  18.338
   62ETHO    O133277  21.116  14.629  18.532
   62ETHO    C133278  21.032  14.522  18.573
   62ETHO   H1133279  21.010  14.445  18.495
   62ETHO   H1333280  20.936  14.569  18.602
   62ETHO    C233281  21.059  14.464  18.707
   62ETHO   H2133282  20.963  14.423  18.744
   62ETHO   H2333283  21.103  14.539  18.777
   63ETHO    O133284  21.141  14.348  18.694
   63ETHO    C133285  21.148  14.270  18.820
   63ETHO   H1133286  21.185  14.331  18.905
   63ETHO   H1333287  21.048  14.240  18.858
   63ETHO    C233288  21.251  14.154  18.803
   63ETHO   H2133289  21.241  14.101  18.706
   63ETHO   H2333290  21.233  14.089  18.892
   64ETHO    O133291  21.384  14.210  18.821
   64ETHO    C133292  21.491  14.116  18.803
   64ETHO   H1133293  21.487  14.087  18.696
   64ETHO   H1333294  21.469  14.023  18.860
   64ETHO    C233295  21.626  14.189  18.822
   64ETHO   H2133296  21.629  14.278  18.756
   64ETHO   H2333297  21.701  14.114  18.787
   65ETHO    O133298  21.656  14.229  18.957
   65ETHO    C133299  21.787  14.286  18.953
   65ETHO   H1133300  21.864  14.216  18.914
   65ETHO   H1333301  21.788  14.373  18.885
   65ETHO    C233302  21.827  14.348  19.096
   65ETHO   H2133303  21.937  14.361  19.101
   65ETHO   H2333304  21.788  14.275  19.170
   66ETHO    O133305  21.757  14.467  19.115
   66ETHO    C133306  21.794  14.518  19.240
   66ETHO   H1133307  21.898  14.553  19.224
   66ETHO   H1333308  21.809  14.435  19.313
   66ETHO    C233309  21.702  14.624  19.295
   66ETHO   H2133310  21.692  14.626  19.405
   66ETHO   H2333311  21.598  14.598  19.268
   67ETHO    O133312  21.723  14.752  19.233
   67ETHO    C133313  21.652  14.859  19.306
   67ETHO   H1133314  21.566  14.821  19.364
   67ETHO   H1333315  21.717  14.898  19.387
   67ETHO    C233316  21.588  14.976  19.230
   67ETHO   H2133317  21.667  15.041  19.188
   67ETHO   H2333318  21.535  15.041  19.303
   68ETHO    O133319  21.493  14.944  19.130
   68ETHO    C133320  21.409  15.056  19.096
   68ETHO   H1133321  21.344  15.014  19.017
   68ETHO   H1333322  21.344  15.077  19.183
   68ETHO    C233323  21.488  15.175  19.042
   68ETHO   H2133324  21.419  15.243  18.987
   68ETHO   H2333325  21.557  15.129  18.969
   69ETHO    O133326  21.556  15.258  19.136
   69ETHO    C133327  21.644  15.365  19.085
   69ETHO   H1133328  21.715  15.328  19.007
   69ETHO   H1333329  21.567  15.431  19.039
   69ETHO    C233330  21.714  15.438  19.201
   69ETHO   H2133331  21.651  15.469  19.288
   69ETHO   H2333332  21.754  15.537  19.170
   70ETHO    O133333  21.823  15.345  19.237
   70ETHO    C133334  21.853  15.362  19.373
   70ETHO   H1133335  21.883  15.468  19.387
   70ETHO   H1333336  21.758  15.342  19.427
   70ETHO    C233337  21.963  15.263  19.423
   70ETHO   H2133338  21.929  15.158  19.414
   70ETHO   H2333339  21.978  15.291  19.529
   71ETHO    O133340  22.088  15.288  19.361
   71ETHO    C133341  22.180  15.182  19.379
   71ETHO   H1133342  22.154  15.158  19.484
   71ETHO   H1333343  22.283  15.220  19.398
   71ETHO    C233344  22.169  15.053  19.291
   71ETHO   H2133345  22.267  15.002  19.299
   71ETHO   H2333346  22.164  15.078  19.183
   72ETHO    O133347  22.063  14.969  19.341
   72ETHO    C133348  22.047  14.853  19.262
   72ETHO   H1133349  21.940  14.826  19.278
   72ETHO   H1333350  22.065  14.894  19.160
   72ETHO    C233351  22.136  14.739  19.286
   72ETHO   H2133352  22.242  14.773  19.281
   72ETHO   H2333353  22.118  14.659  19.211
   73ETHO    O133354  22.106  14.676  19.407
   73ETHO    C133355  22.218  14.625  19.483
   73ETHO   H1133356  22.195  14.617  19.591
   73ETHO   H1333357  22.315  14.677  19.465
   73ETHO    C233358  22.237  14.479  19.440
   73ETHO   H2133359  22.328  14.449  19.497
   73ETHO   H2333360  22.263  14.472  19.332
   74ETHO    O133361  22.121  14.404  19.477
   74ETHO    C133362  22.136  14.269  19.428
   74ETHO   H1133363  22.167  14.260  19.322
   74ETHO   H1333364  22.216  14.212  19.480
   74ETHO    C233365  22.005  14.181  19.440
   74ETHO   H2133366  22.036  14.084  19.396
   74ETHO   H2333367  21.922  14.223  19.378
   75ETHO    O133368  21.956  14.165  19.578
   75ETHO    C133369  21.841  14.076  19.586
   75ETHO   H1133370  21.814  14.066  19.694
   75ETHO   H1333371  21.882  13.982  19.545
   75ETHO    C233372  21.714  14.112  19.511
   75ETHO   H2133373  21.690  14.219  19.528
   75ETHO   H2333374  21.632  14.058  19.564
   76ETHO    O133375  21.707  14.073  19.377
   76ETHO    C133376  21.586  14.121  19.312
   76ETHO   H1133377  21.495  14.118  19.376
   76ETHO   H1333378  21.601  14.226  19.281
   76ETHO    C233379  21.548  14.037  19.181
   76ETHO   H2133380  21.635  14.046  19.113
   76ETHO   H2333381  21.466  14.088  19.126
   77ETHO    O133382  21.521  13.898  19.210
   77ETHO    C133383  21.426  13.867  19.304
   77ETHO   H1133384  21.343  13.941  19.298
   77ETHO   H1333385  21.476  13.872  19.403
   77ETHO    C233386  21.384  13.731  19.262
   77ETHO   H2133387  21.328  13.679  19.342
   77ETHO   H2333388  21.479  13.673  19.259
   78ETHO    O133389  21.309  13.740  19.137
   78ETHO    C133390  21.275  13.612  19.091
   78ETHO   H1133391  21.355  13.535  19.101
   78ETHO   H1333392  21.182  13.577  19.141
   78ETHO    C233393  21.248  13.603  18.941
   78ETHO   H2133394  21.158  13.663  18.915
   78ETHO   H2333395  21.222  13.497  18.921
   79ETHO    O133396  21.364  13.640  18.866
   79ETHO    C133397  21.343  13.628  18.724
   79ETHO   H1133398  21.356  13.519  18.705
   79ETHO   H1333399  21.245  13.663  18.686
   79ETHO    C233400  21.445  13.683  18.623
   79ETHO   H2133401  21.422  13.624  18.532
   79ETHO   H2333402  21.553  13.673  18.649
   80ETHO    O133403  21.417  13.824  18.590
   80ETHO    C133404  21.484  13.869  18.479
   80ETHO   H1133405  21.573  13.925  18.516
   80ETHO   H1333406  21.514  13.789  18.408
   80ETHO    C233407  21.404  13.972  18.400
   80ETHO   H2133408  21.469  14.049  18.352
   80ETHO   H2333409  21.336  14.032  18.464
   81ETHO    O133410  21.325  13.925  18.283
   81ETHO    C133411  21.265  14.028  18.208
   81ETHO   H1133412  21.171  14.058  18.258
   81ETHO   H1333413  21.337  14.113  18.202
   81ETHO    C233414  21.235  13.976  18.062
   81ETHO   H2133415  21.230  14.069  18.002
   81ETHO   H2333416  21.322  13.921  18.020
   82ETHO    O133417  21.121  13.893  18.038
   82ETHO    C133418  20.993  13.963  18.050
   82ETHO   H1133419  20.939  13.986  17.956
   82ETHO   H1333420  21.006  14.062  18.098
   82ETHO    C233421  20.893  13.890  18.142
   82ETHO   H2133422  20.819  13.966  18.174
   82ETHO   H2333423  20.926  13.852  18.241
   83ETHO    O133424  20.808  13.792  18.079
   83ETHO    C133425  20.697  13.768  18.161
   83ETHO   H1133426  20.731  13.734  18.262
   83ETHO   H1333427  20.635  13.860  18.165
   83ETHO    C233428  20.616  13.665  18.090
   83ETHO   H2133429  20.546  13.631  18.169
   83ETHO   H2333430  20.673  13.573  18.064
   84ETHO    O133431  20.533  13.724  17.988
   84ETHO    C133432  20.467  13.625  17.916
   84ETHO   H1133433  20.418  13.551  17.982
   84ETHO   H1333434  20.530  13.571  17.842
   84ETHO    C233435  20.347  13.668  17.828
   84ETHO   H2133436  20.321  13.604  17.741
   84ETHO   H2333437  20.369  13.762  17.772
   85ETHO    O133438  20.239  13.693  17.912
   85ETHO    C133439  20.158  13.802  17.869
   85ETHO   H1133440  20.087  13.835  17.947
   85ETHO   H1333441  20.224  13.890  17.852
   85ETHO    C233442  20.073  13.763  17.746
   85ETHO   H2133443  20.144  13.746  17.663
   85ETHO   H2333444  20.005  13.850  17.732
   86ETHO    O133445  19.986  13.651  17.756
   86ETHO    C133446  19.898  13.634  17.640
   86ETHO   H1133447  19.948  13.585  17.553
   86ETHO   H1333448  19.875  13.737  17.606
   86ETHO    C233449  19.762  13.569  17.684
   86ETHO   H2133450  19.746  13.570  17.794
   86ETHO   H2333451  19.764  13.463  17.652
   87ETHO    O133452  19.654  13.633  17.635
   87ETHO    C133453  19.532  13.572  17.666
   87ETHO   H1133454  19.521  13.487  17.595
   87ETHO   H1333455  19.523  13.529  17.768
   87ETHO    C233456  19.416  13.663  17.635
   87ETHO   H2133457  19.421  13.699  17.530
   87ETHO   H2333458  19.411  13.750  17.703
   88ETHO    O133459  19.286  13.599  17.646
   88ETHO    C133460  19.182  13.662  17.576
   88ETHO   H1133461  19.221  13.699  17.479
   88ETHO   H1333462  19.145  13.751  17.631
   88ETHO    C233463  19.049  13.581  17.561
   88ETHO   H2133464  18.971  13.655  17.533
   88ETHO   H2333465  19.025  13.523  17.653
   89ETHO    O133466  19.054  13.496  17.446
   89ETHO    C133467  18.929  13.432  17.428
   89ETHO   H1133468  18.900  13.364  17.511
   89ETHO   H1333469  18.847  13.506  17.417
   89ETHO    C233470  18.926  13.361  17.287
   89ETHO   H2133471  18.834  13.298  17.290
   89ETHO   H2333472  19.015  13.297  17.275
   90ETHO    O133473  18.914  13.445  17.177
   90ETHO    C133474  18.878  13.370  17.061
   90ETHO   H1133475  18.975  13.355  17.008
   90ETHO   H1333476  18.845  13.266  17.085
   90ETHO    C233477  18.769  13.447  16.967
   90ETHO   H2133478  18.764  13.400  16.867
   90ETHO   H2333479  18.812  13.550  16.965
   91ETHO    O133480  18.637  13.452  17.018
   91ETHO    C133481  18.551  13.549  16.954
   91ETHO   H1133482  18.594  13.651  16.952
   91ETHO   H1333483  18.546  13.529  16.845
   91ETHO    C233484  18.408  13.554  17.022
   91ETHO   H2133485  18.415  13.586  17.128
   91ETHO   H2333486  18.371  13.449  17.020
   92ETHO    O133487  18.316  13.643  16.960
   92ETHO    C133488  18.238  13.576  16.858
   92ETHO   H1133489  18.292  13.572  16.761
   92ETHO   H1333490  18.223  13.470  16.890
   92ETHO    C233491  18.094  13.627  16.856
   92ETHO   H2133492  18.088  13.711  16.784
   92ETHO   H2333493  18.066  13.681  16.949
   93ETHO    O133494  17.996  13.528  16.833
   93ETHO    C133495  17.874  13.590  16.812
   93ETHO   H1133496  17.873  13.687  16.756
   93ETHO   H1333497  17.829  13.617  16.910
   93ETHO    C233498  17.767  13.500  16.740
   93ETHO   H2133499  17.770  13.394  16.774
   93ETHO   H2333500  17.766  13.501  16.629
   94ETHO    O133501  17.634  13.535  16.789
   94ETHO    C133502  17.537  13.561  16.690
   94ETHO   H1133503  17.581  13.628  16.613
   94ETHO   H1333504  17.526  13.466  16.635
   94ETHO    C233505  17.404  13.607  16.750
   94ETHO   H2133506  17.397  13.551  16.846
   94ETHO   H2333507  17.318  13.573  16.689
   95ETHO    O133508  17.396  13.750  16.780
   95ETHO    C133509  17.269  13.779  16.837
   95ETHO   H1133510  17.268  13.879  16.886
   95ETHO   H1333511  17.249  13.703  16.916
   95ETHO    C233512  17.157  13.780  16.731
   95ETHO   H2133513  17.188  13.828  16.636
   95ETHO   H2333514  17.075  13.835  16.782
   96ETHO    O133515  17.110  13.650  16.703
   96ETHO    C133516  16.989  13.657  16.625
   96ETHO   H1133517  16.920  13.705  16.697
   96ETHO   H1333518  17.004  13.718  16.534
   96ETHO    C233519  16.933  13.526  16.581
   96ETHO   H2133520  16.831  13.531  16.625
   96ETHO   H2333521  16.984  13.431  16.607
   97ETHO    O133522  16.927  13.527  16.432
   97ETHO    C133523  16.815  13.445  16.392
   97ETHO   H1133524  16.716  13.480  16.428
   97ETHO   H1333525  16.826  13.341  16.432
   97ETHO    C233526  16.791  13.452  16.243
   97ETHO   H2133527  16.881  13.423  16.185
   97ETHO   H2333528  16.765  13.558  16.221
   98ETHO    O133529  16.688  13.359  16.195
   98ETHO    C133530  16.677  13.354  16.055
   98ETHO   H1133531  16.774  13.361  16.003
   98ETHO   H1333532  16.630  13.257  16.027
   98ETHO    C233533  16.586  13.466  15.997
   98ETHO   H2133534  16.621  13.566  16.031
   98ETHO   H2333535  16.487  13.453  16.045
   99ETHO    O133536  16.575  13.457  15.856
   99ETHO    C133537  16.446  13.502  15.814
   99ETHO   H1133538  16.442  13.607  15.851
   99ETHO   H1333539  16.381  13.430  15.868
   99ETHO    C233540  16.413  13.496  15.659
   99ETHO   H2133541  16.457  13.415  15.596
   99ETHO   H2333542  16.469  13.584  15.620
  100ETHO    O133543  16.274  13.501  15.633
  100ETHO    C133544  16.259  13.547  15.496
  100ETHO   H1133545  16.181  13.627  15.503
  100ETHO   H1333546  16.350  13.589  15.447
  100ETHO    C233547  16.190  13.425  15.418
  100ETHO   H2133548  16.097  13.389  15.467
  100ETHO   H2333549  16.258  13.338  15.426
  101PROX    O133550  16.182  13.475  15.288
  101PROX    C133551  16.122  13.387  15.195
  101PROX   H1133552  16.167  13.286  15.204
  101PROX   H1333553  16.015  13.391  15.222
  101PROX    C233554  16.132  13.435  15.055
  101PROX   H2133555  16.230  13.487  15.050
  101PROX    C333556  16.025  13.537  14.999
  101PROX   H3133557  15.925  13.496  15.027
  101PROX   H3233558  16.042  13.635  15.048
  101PROX   H3333559  16.035  13.550  14.889
  102PROX    O133560  16.153  13.322  14.970
  102PROX    C133561  16.042  13.251  14.935
  102PROX   H1133562  15.968  13.233  15.015
  102PROX   H1333563  15.990  13.311  14.857
  102PROX    C233564  16.075  13.111  14.865
  102PROX   H2133565  16.123  13.052  14.946
  102PROX    C333566  16.148  13.136  14.736
  102PROX   H3133567  16.244  13.192  14.745
  102PROX   H3233568  16.169  13.035  14.696
  102PROX   H3333569  16.090  13.196  14.662
  103PROX    O133570  15.956  13.043  14.828
  103PROX    C133571  15.913  12.942  14.914
  103PROX   H1133572  15.980  12.853  14.910
  103PROX   H1333573  15.914  12.988  15.015
  103PROX    C233574  15.769  12.884  14.879
  103PROX   H2133575  15.692  12.964  14.879
  103PROX    C333576  15.723  12.779  14.977
  103PROX   H3133577  15.800  12.700  14.984
  103PROX   H3233578  15.729  12.836  15.073
  103PROX   H3333579  15.619  12.759  14.943
  104PROX    O133580  15.780  12.816  14.754
  104PROX    C133581  15.734  12.906  14.649
  104PROX   H1133582  15.627  12.928  14.670
  104PROX   H1333583  15.790  13.002  14.649
  104PROX    C233584  15.746  12.839  14.513
  104PROX   H2133585  15.715  12.734  14.531
  104PROX    C333586  15.890  12.843  14.467
  104PROX   H3133587  15.946  12.935  14.496
  104PROX   H3233588  15.941  12.754  14.509
  104PROX   H3333589  15.898  12.821  14.359
  105PROX    O133590  15.658  12.900  14.419
  105PROX    C133591  15.665  13.044  14.415
  105PROX   H1133592  15.607  13.078  14.503
  105PROX   H1333593  15.769  13.082  14.420
  105PROX    C233594  15.581  13.093  14.289
  105PROX   H2133595  15.480  13.050  14.304
  105PROX    C333596  15.638  13.027  14.161
  105PROX   H3133597  15.740  13.061  14.132
  105PROX   H3233598  15.656  12.918  14.175
  105PROX   H3333599  15.577  13.042  14.070
  106PROX    O133600  15.577  13.239  14.288
  106PROX    C133601  15.524  13.291  14.169
  106PROX   H1133602  15.590  13.281  14.081
  106PROX   H1333603  15.424  13.244  14.154
  106PROX    C233604  15.525  13.446  14.192
  106PROX   H2133605  15.484  13.460  14.294
  106PROX    C333606  15.436  13.510  14.080
  106PROX   H3133607  15.333  13.468  14.085
  106PROX   H3233608  15.415  13.615  14.108
  106PROX   H3333609  15.482  13.519  13.980
  107PROX    O133610  15.656  13.497  14.185
  107PROX    C133611  15.680  13.596  14.281
  107PROX   H1133612  15.604  13.677  14.274
  107PROX   H1333613  15.660  13.551  14.381
  107PROX    C233614  15.824  13.665  14.275
  107PROX   H2133615  15.829  13.753  14.342
  107PROX    C333616  15.859  13.716  14.136
  107PROX   H3133617  15.800  13.809  14.122
  107PROX   H3233618  15.965  13.750  14.136
  107PROX   H3333619  15.841  13.636  14.061
  108PROX    O133620  15.932  13.577  14.311
  108PROX    C133621  15.939  13.518  14.437
  108PROX   H1133622  16.046  13.506  14.463
  108PROX   H1333623  15.894  13.584  14.514
  108PROX    C233624  15.875  13.380  14.445
  108PROX   H2133625  15.786  13.376  14.380
  108PROX    C333626  15.823  13.356  14.585
  108PROX   H3133627  15.805  13.248  14.606
  108PROX   H3233628  15.900  13.382  14.661
  108PROX   H3333629  15.720  13.394  14.604
  109PROX    O133630  15.971  13.280  14.407
  109PROX    C133631  15.997  13.283  14.269
  109PROX   H1133632  15.905  13.305  14.211
  109PROX   H1333633  16.064  13.367  14.240
  109PROX    C233634  16.065  13.147  14.219
  109PROX   H2133635  15.992  13.065  14.238
  109PROX    C333636  16.199  13.120  14.293
  109PROX   H3133637  16.229  13.013  14.293
  109PROX   H3233638  16.272  13.183  14.238
  109PROX   H3333639  16.196  13.156  14.398
  110PROX    O133640  16.097  13.156  14.085
  110PROX    C133641  15.979  13.162  14.001
  110PROX   H1133642  15.958  13.058  13.970
  110PROX   H1333643  15.885  13.196  14.048
  110PROX    C233644  16.000  13.237  13.868
  110PROX   H2133645  16.089  13.190  13.822
  110PROX    C333646  16.026  13.386  13.897
  110PROX   H3133647  15.949  13.430  13.963
  110PROX   H3233648  16.126  13.397  13.944
  110PROX   H3333649  16.039  13.447  13.804
  111PROX    O133650  15.898  13.207  13.774
  111PROX    C133651  15.786  13.289  13.781
  111PROX   H1133652  15.761  13.313  13.887
  111PROX   H1333653  15.808  13.383  13.726
  111PROX    C233654  15.663  13.230  13.704
  111PROX   H2133655  15.694  13.221  13.598
  111PROX    C333656  15.547  13.327  13.712
  111PROX   H3133657  15.489  13.333  13.807
  111PROX   H3233658  15.574  13.432  13.687
  111PROX   H3333659  15.479  13.296  13.630
  112PROX    O133660  15.627  13.109  13.769
  112PROX    C133661  15.547  13.026  13.693
  112PROX   H1133662  15.462  13.089  13.657
  112PROX   H1333663  15.598  12.994  13.600
  112PROX    C233664  15.501  12.916  13.787
  112PROX   H2133665  15.449  12.961  13.874
  112PROX    C333666  15.618  12.840  13.848
  112PROX   H3133667  15.671  12.784  13.768
  112PROX   H3233668  15.679  12.911  13.908
  112PROX   H3333669  15.572  12.768  13.919
  113PROX    O133670  15.394  12.846  13.722
  113PROX    C133671  15.322  12.760  13.809
  113PROX   H1133672  15.385  12.674  13.840
  113PROX   H1333673  15.298  12.818  13.900
  113PROX    C233674  15.192  12.715  13.748
  113PROX   H2133675  15.224  12.653  13.661
  113PROX    C333676  15.095  12.832  13.701
  113PROX   H3133677  15.143  12.904  13.631
  113PROX   H3233678  15.007  12.794  13.645
  113PROX   H3333679  15.078  12.875  13.802
  114PROX    O133680  15.134  12.642  13.848
  114PROX    C133681  15.021  12.574  13.805
  114PROX   H1133682  14.932  12.640  13.814
  114PROX   H1333683  15.034  12.549  13.697
  114PROX    C233684  15.002  12.441  13.867
  114PROX   H2133685  15.089  12.376  13.843
  114PROX    C333686  14.885  12.376  13.788
  114PROX   H3133687  14.890  12.389  13.678
  114PROX   H3233688  14.868  12.274  13.828
  114PROX   H3333689  14.791  12.429  13.816
  115PROX    O133690  14.973  12.447  14.004
  115PROX    C133691  14.992  12.328  14.081
  115PROX   H1133692  14.937  12.342  14.176
  115PROX   H1333693  14.936  12.250  14.026
  115PROX    C233694  15.137  12.292  14.106
  115PROX   H2133695  15.130  12.232  14.199
  115PROX    C333696  15.225  12.420  14.115
  115PROX   H3133697  15.249  12.464  14.015
  115PROX   H3233698  15.169  12.501  14.166
  115PROX   H3333699  15.315  12.392  14.173
  116PROX    O133700  15.177  12.205  14.001
  116PROX    C133701  15.274  12.113  14.053
  116PROX   H1133702  15.346  12.172  14.114
  116PROX   H1333703  15.217  12.039  14.113
  116PROX    C233704  15.370  12.039  13.949
  116PROX   H2133705  15.305  11.992  13.872
  116PROX    C333706  15.452  11.925  14.021
  116PROX   H3133707  15.393  11.872  14.099
  116PROX   H3233708  15.486  11.842  13.955
  116PROX   H3333709  15.544  11.970  14.065
  117PROX    O133710  15.462  12.124  13.881
  117PROX    C133711  15.410  12.178  13.767
  117PROX   H1133712  15.384  12.095  13.698
  117PROX   H1333713  15.319  12.239  13.785
  117PROX    C233714  15.512  12.282  13.700
  117PROX   H2133715  15.607  12.229  13.682
  117PROX    C333716  15.528  12.396  13.803
  117PROX   H3133717  15.578  12.355  13.894
  117PROX   H3233718  15.584  12.485  13.768
  117PROX   H3333719  15.429  12.434  13.836
  118PROX    O133720  15.462  12.328  13.574
  118PROX    C133721  15.556  12.403  13.500
  118PROX   H1133722  15.658  12.389  13.542
  118PROX   H1333723  15.562  12.358  13.398
  118PROX    C233724  15.507  12.553  13.487
  118PROX   H2133725  15.518  12.598  13.588
  118PROX    C333726  15.371  12.563  13.424
  118PROX   H3133727  15.317  12.654  13.458
  118PROX   H3233728  15.376  12.548  13.314
  118PROX   H3333729  15.301  12.483  13.456
  119PROX    O133730  15.604  12.620  13.409
  119PROX    C133731  15.597  12.763  13.409
  119PROX   H1133732  15.536  12.798  13.323
  119PROX   H1333733  15.550  12.801  13.503
  119PROX    C233734  15.742  12.826  13.406
  119PROX   H2133735  15.732  12.936  13.406
  119PROX    C333736  15.823  12.801  13.275
  119PROX   H3133737  15.765  12.823  13.183
  119PROX   H3233738  15.912  12.866  13.283
  119PROX   H3333739  15.855  12.695  13.287
  120PROX    O133740  15.803  12.800  13.536
  120PROX    C133741  15.889  12.688  13.541
  120PROX   H1133742  15.841  12.596  13.500
  120PROX   H1333743  15.984  12.699  13.485
  120PROX    C233744  15.915  12.658  13.690
  120PROX   H2133745  15.817  12.622  13.727
  120PROX    C333746  15.976  12.780  13.766
  120PROX   H3133747  15.997  12.755  13.872
  120PROX   H3233748  16.072  12.802  13.714
  120PROX   H3333749  15.925  12.875  13.741
  121PROX    O133750  16.007  12.552  13.711
  121PROX    C133751  15.965  12.426  13.661
  121PROX   H1133752  15.861  12.406  13.696
  121PROX   H1333753  15.967  12.431  13.550
  121PROX    C233754  16.055  12.315  13.705
  121PROX   H2133755  16.067  12.305  13.815
  121PROX    C333756  16.202  12.343  13.656
  121PROX   H3133757  16.187  12.347  13.546
  121PROX   H3233758  16.245  12.441  13.684
  121PROX   H3333759  16.256  12.252  13.689
  122PROX    O133760  16.021  12.190  13.644
  122PROX    C133761  15.892  12.139  13.681
  122PROX   H1133762  15.801  12.201  13.674
  122PROX   H1333763  15.875  12.051  13.615
  122PROX    C233764  15.889  12.085  13.826
  122PROX   H2133765  15.985  12.040  13.860
  122PROX    C333766  15.780  11.977  13.833
  122PROX   H3133767  15.782  11.912  13.743
  122PROX   H3233768  15.774  11.925  13.930
  122PROX   H3333769  15.681  12.026  13.822
  123PROX    O133770  15.859  12.194  13.911
  123PROX    C133771  15.854  12.162  14.047
  123PROX   H1133772  15.797  12.072  14.077
  123PROX   H1333773  15.956  12.138  14.083
  123PROX    C233774  15.804  12.290  14.116
  123PROX   H2133775  15.708  12.326  14.073
  123PROX    C333776  15.895  12.405  14.121
  123PROX   H3133777  15.928  12.434  14.018
  123PROX   H3233778  15.848  12.490  14.175
  123PROX   H3333779  15.986  12.371  14.175
  124PROX    O133780  15.783  12.276  14.259
  124PROX    C133781  15.648  12.237  14.295
  124PROX   H1133782  15.587  12.322  14.259
  124PROX   H1333783  15.606  12.155  14.234
  124PROX    C233784  15.634  12.214  14.442
  124PROX   H2133785  15.693  12.297  14.487
  124PROX    C333786  15.678  12.079  14.490
  124PROX   H3133787  15.786  12.065  14.468
  124PROX   H3233788  15.660  12.066  14.599
  124PROX   H3333789  15.626  11.994  14.443
  125PROX    O133790  15.506  12.249  14.494
  125PROX    C133791  15.400  12.167  14.435
  125PROX   H1133792  15.369  12.223  14.344
  125PROX   H1333793  15.430  12.063  14.411
  125PROX    C233794  15.281  12.166  14.535
  125PROX   H2133795  15.258  12.268  14.573
  125PROX    C333796  15.320  12.074  14.659
  125PROX   H3133797  15.313  11.969  14.623
  125PROX   H3233798  15.425  12.086  14.692
  125PROX   H3333799  15.247  12.096  14.740
  126PROX    O133800  15.170  12.113  14.469
  126PROX    C133801  15.056  12.197  14.463
  126PROX   H1133802  15.029  12.223  14.568
  126PROX   H1333803  15.083  12.285  14.401
  126PROX    C233804  14.949  12.109  14.410
  126PROX   H2133805  14.916  12.049  14.497
  126PROX    C333806  14.984  12.007  14.302
  126PROX   H3133807  15.005  12.058  14.206
  126PROX   H3233808  15.070  11.941  14.328
  126PROX   H3333809  14.902  11.936  14.279
  127PROX    O133810  14.834  12.188  14.362
  127PROX    C133811  14.722  12.106  14.322
  127PROX   H1133812  14.730  12.096  14.212
  127PROX   H1333813  14.701  12.008  14.371
  127PROX    C233814  14.583  12.176  14.355
  127PROX   H2133815  14.590  12.284  14.327
  127PROX    C333816  14.540  12.169  14.505
  127PROX   H3133817  14.446  12.228  14.508
  127PROX   H3233818  14.517  12.066  14.537
  127PROX   H3333819  14.617  12.223  14.565
  128PROX    O133820  14.488  12.114  14.270
  128PROX    C133821  14.386  12.207  14.225
  128PROX   H1133822  14.296  12.146  14.201
  128PROX   H1333823  14.360  12.290  14.294
  128PROX    C233824  14.422  12.271  14.093
  128PROX   H2133825  14.514  12.328  14.120
  128PROX    C333826  14.308  12.362  14.049
  128PROX   H3133827  14.226  12.297  14.013
  128PROX   H3233828  14.272  12.417  14.139
  128PROX   H3333829  14.349  12.427  13.969
  129PROX    O133830  14.453  12.162  13.999
  129PROX    C133831  14.499  12.202  13.874
  129PROX   H1133832  14.402  12.222  13.824
  129PROX   H1333833  14.563  12.293  13.878
  129PROX    C233834  14.576  12.086  13.794
  129PROX   H2133835  14.505  12.000  13.787
  129PROX    C333836  14.692  12.046  13.874
  129PROX   H3133837  14.659  12.002  13.970
  129PROX   H3233838  14.766  11.979  13.825
  129PROX   H3333839  14.753  12.134  13.903
  130PROX    O133840  14.618  12.135  13.667
  130PROX    C133841  14.514  12.169  13.580
  130PROX   H1133842  14.441  12.086  13.575
  130PROX   H1333843  14.455  12.250  13.627
  130PROX    C233844  14.563  12.214  13.444
  130PROX   H2133845  14.598  12.127  13.384
  130PROX    C333846  14.693  12.299  13.453
  130PROX   H3133847  14.718  12.330  13.349
  130PROX   H3233848  14.671  12.390  13.514
  130PROX   H3333849  14.784  12.248  13.491
  131PROX    O133850  14.465  12.291  13.372
  131PROX    C133851  14.416  12.418  13.429
  131PROX   H1133852  14.336  12.398  13.503
  131PROX   H1333853  14.500  12.473  13.478
  131PROX    C233854  14.368  12.520  13.314
  131PROX   H2133855  14.315  12.461  13.237
  131PROX    C333856  14.486  12.593  13.251
  131PROX   H3133857  14.456  12.651  13.160
  131PROX   H3233858  14.523  12.667  13.325
  131PROX   H3333859  14.568  12.522  13.228
  132PROX    O133860  14.297  12.623  13.374
  132PROX    C133861  14.165  12.657  13.319
  132PROX   H1133862  14.179  12.737  13.243
  132PROX   H1333863  14.117  12.563  13.285
  132PROX    C233864  14.065  12.702  13.434
  132PROX   H2133865  14.107  12.651  13.524
  132PROX    C333866  13.926  12.642  13.399
  132PROX   H3133867  13.909  12.532  13.398
  132PROX   H3233868  13.848  12.696  13.456
  132PROX   H3333869  13.906  12.657  13.291
  133PROX    O133870  14.057  12.842  13.444
  133PROX    C133871  14.174  12.906  13.498
  133PROX   H1133872  14.248  12.847  13.556
  133PROX   H1333873  14.222  12.939  13.403
  133PROX    C233874  14.144  13.039  13.580
  133PROX   H2133875  14.128  13.005  13.685
  133PROX    C333876  14.021  13.119  13.535
  133PROX   H3133877  14.030  13.152  13.429
  133PROX   H3233878  13.931  13.056  13.548
  133PROX   H3333879  14.002  13.208  13.598
  134PROX    O133880  14.257  13.131  13.567
  134PROX    C133881  14.365  13.111  13.652
  134PROX   H1133882  14.400  13.006  13.644
  134PROX   H1333883  14.451  13.173  13.619
  134PROX    C233884  14.324  13.149  13.799
  134PROX   H2133885  14.252  13.071  13.830
  134PROX    C333886  14.262  13.293  13.820
  134PROX   H3133887  14.199  13.320  13.733
  134PROX   H3233888  14.197  13.291  13.910
  134PROX   H3333889  14.340  13.370  13.837
  135PROX    O133890  14.434  13.132  13.888
  135PROX    C133891  14.397  13.128  14.026
  135PROX   H1133892  14.495  13.122  14.078
  135PROX   H1333893  14.343  13.216  14.067
  135PROX    C233894  14.333  12.985  14.072
  135PROX   H2133895  14.224  13.003  14.083
  135PROX    C333896  14.384  12.948  14.210
  135PROX   H3133897  14.494  12.935  14.206
  135PROX   H3233898  14.349  13.023  14.283
  135PROX   H3333899  14.338  12.852  14.243
  136PROX    O133900  14.353  12.893  13.970
  136PROX    C133901  14.272  12.780  13.976
  136PROX   H1133902  14.327  12.709  14.041
  136PROX   H1333903  14.171  12.806  14.012
  136PROX    C233904  14.263  12.716  13.836
  136PROX   H2133905  14.261  12.801  13.765
  136PROX    C333906  14.122  12.640  13.842
  136PROX   H3133907  14.045  12.718  13.856
  136PROX   H3233908  14.104  12.600  13.739
  136PROX   H3333909  14.113  12.552  13.910
  137PROX    O133910  14.363  12.619  13.802
  137PROX    C133911  14.501  12.642  13.835
  137PROX   H1133912  14.522  12.676  13.939
  137PROX   H1333913  14.555  12.549  13.809
  137PROX    C233914  14.557  12.753  13.747
  137PROX   H2133915  14.501  12.847  13.769
  137PROX    C333916  14.550  12.726  13.600
  137PROX   H3133917  14.442  12.709  13.582
  137PROX   H3233918  14.596  12.799  13.530
  137PROX   H3333919  14.607  12.633  13.581
  138PROX    O133920  14.693  12.772  13.766
  138PROX    C133921  14.745  12.897  13.827
  138PROX   H1133922  14.855  12.883  13.824
  138PROX   H1333923  14.718  12.987  13.769
  138PROX    C233924  14.708  12.908  13.974
  138PROX   H2133925  14.598  12.914  13.989
  138PROX    C333926  14.763  13.033  14.031
  138PROX   H3133927  14.734  13.052  14.136
  138PROX   H3233928  14.874  13.029  14.036
  138PROX   H3333929  14.727  13.129  13.987
  139PROX    O133930  14.758  12.795  14.043
  139PROX    C133931  14.707  12.774  14.172
  139PROX   H1133932  14.734  12.859  14.238
  139PROX   H1333933  14.597  12.758  14.174
  139PROX    C233934  14.755  12.633  14.234
  139PROX   H2133935  14.866  12.645  14.230
  139PROX    C333936  14.699  12.516  14.157
  139PROX   H3133937  14.588  12.518  14.151
  139PROX   H3233938  14.740  12.529  14.054
  139PROX   H3333939  14.725  12.416  14.198
  140PROX    O133940  14.714  12.628  14.373
  140PROX    C133941  14.772  12.518  14.441
  140PROX   H1133942  14.694  12.443  14.466
  140PROX   H1333943  14.848  12.464  14.381
  140PROX    C233944  14.839  12.549  14.576
  140PROX   H2133945  14.763  12.603  14.636
  140PROX    C333946  14.955  12.637  14.540
  140PROX   H3133947  15.011  12.580  14.463
  140PROX   H3233948  14.930  12.736  14.497
  140PROX   H3333949  15.021  12.650  14.629
  141PROX    O133950  14.880  12.433  14.641
  141PROX    C133951  14.893  12.448  14.781
  141PROX   H1133952  14.921  12.550  14.814
  141PROX   H1333953  14.800  12.413  14.831
  141PROX    C233954  15.001  12.355  14.833
  141PROX   H2133955  15.098  12.381  14.784
  141PROX    C333956  14.956  12.209  14.815
  141PROX   H3133957  14.879  12.205  14.735
  141PROX   H3233958  15.036  12.133  14.801
  141PROX   H3333959  14.884  12.184  14.895
  142PROX    O133960  15.007  12.370  14.978
  142PROX    C133961  15.044  12.497  15.029
  142PROX   H1133962  14.969  12.578  15.016
  142PROX   H1333963  15.056  12.486  15.139
  142PROX    C233964  15.185  12.544  14.981
  142PROX   H2133965  15.177  12.576  14.875
  142PROX    C333966  15.296  12.443  14.995
  142PROX   H3133967  15.281  12.366  14.917
  142PROX   H3233968  15.396  12.489  14.977
  142PROX   H3333969  15.294  12.392  15.094
  143PROX    O133970  15.223  12.655  15.058
  143PROX    C133971  15.137  12.770  15.050
  143PROX   H1133972  15.096  12.803  14.952
  143PROX   H1333973  15.043  12.750  15.107
  143PROX    C233974  15.210  12.885  15.106
  143PROX   H2133975  15.299  12.908  15.042
  143PROX    C333976  15.261  12.877  15.250
  143PROX   H3133977  15.186  12.862  15.331
  143PROX   H3233978  15.348  12.809  15.261
  143PROX   H3333979  15.310  12.976  15.263
  144PROX    O133980  15.136  13.003  15.084
  144PROX    C133981  15.025  13.028  15.176
  144PROX   H1133982  14.955  12.945  15.198
  144PROX   H1333983  15.086  13.060  15.264
  144PROX    C233984  14.920  13.136  15.137
  144PROX   H2133985  14.974  13.224  15.097
  144PROX    C333986  14.835  13.187  15.253
  144PROX   H3133987  14.775  13.105  15.298
  144PROX   H3233988  14.893  13.228  15.339
  144PROX   H3333989  14.767  13.273  15.234
  145PROX    O133990  14.830  13.093  15.039
  145PROX    C133991  14.882  13.122  14.910
  145PROX   H1133992  14.897  13.231  14.895
  145PROX   H1333993  14.979  13.069  14.898
  145PROX    C233994  14.802  13.058  14.796
  145PROX   H2133995  14.691  13.059  14.801
  145PROX    C333996  14.838  12.900  14.779
  145PROX   H3133997  14.943  12.865  14.771
  145PROX   H3233998  14.799  12.839  14.863
  145PROX   H3333999  14.780  12.868  14.690
  146PROX    O134000  14.849  13.105  14.671
  146PROX    C134001  14.759  13.090  14.560
  146PROX   H1134002  14.819  13.102  14.468
  146PROX   H1334003  14.717  12.987  14.559
  146PROX    C234004  14.652  13.193  14.556
  146PROX   H2134005  14.583  13.200  14.643
  146PROX    C334006  14.562  13.164  14.439
  146PROX   H3134007  14.598  13.071  14.391
  146PROX   H3234008  14.457  13.156  14.474
  146PROX   H3334009  14.578  13.248  14.367
  147PROX    O134010  14.706  13.329  14.530
  147PROX    C134011  14.729  13.401  14.652
  147PROX   H1134012  14.637  13.397  14.714
  147PROX   H1334013  14.815  13.350  14.700
  147PROX    C234014  14.772  13.548  14.628
  147PROX   H2134015  14.852  13.536  14.551
  147PROX    C334016  14.833  13.610  14.753
  147PROX   H3134017  14.912  13.546  14.798
  147PROX   H3234018  14.866  13.714  14.734
  147PROX   H3334019  14.755  13.624  14.830
  148PROX    O134020  14.662  13.630  14.580
  148PROX    C134021  14.626  13.604  14.446
  148PROX   H1134022  14.715  13.596  14.380
  148PROX   H1334023  14.561  13.514  14.444
  148PROX    C234024  14.524  13.710  14.395
  148PROX   H2134025  14.423  13.703  14.441
  148PROX    C334026  14.500  13.688  14.248
  148PROX   H3134027  14.590  13.709  14.185
  148PROX   H3234028  14.468  13.585  14.221
  148PROX   H3334029  14.411  13.746  14.216
  149PROX    O134030  14.577  13.841  14.409
  149PROX    C134031  14.477  13.938  14.411
  149PROX   H1134032  14.431  13.948  14.310
  149PROX   H1334033  14.389  13.922  14.478
  149PROX    C234034  14.538  14.078  14.450
  149PROX   H2134035  14.630  14.065  14.511
  149PROX    C334036  14.438  14.161  14.533
  149PROX   H3134037  14.351  14.197  14.476
  149PROX   H3234038  14.403  14.094  14.614
  149PROX   H3334039  14.499  14.246  14.571
  150PROX    O134040  14.567  14.160  14.341
  150PROX    C134041  14.687  14.124  14.270
  150PROX   H1134042  14.767  14.155  14.341
  150PROX   H1334043  14.684  14.014  14.255
  150PROX    C234044  14.703  14.206  14.138
  150PROX   H2134045  14.794  14.175  14.082
  150PROX    C334046  14.701  14.358  14.155
  150PROX   H3134047  14.752  14.378  14.252
  150PROX   H3234048  14.768  14.404  14.078
  150PROX   H3334049  14.597  14.396  14.149
  151PROX    O134050  14.588  14.170  14.062
  151PROX    C134051  14.603  14.179  13.927
  151PROX   H1134052  14.502  14.211  13.893
  151PROX   H1334053  14.670  14.264  13.901
  151PROX    C234054  14.637  14.043  13.862
  151PROX   H2134055  14.610  14.057  13.756
  151PROX    C334056  14.563  13.921  13.926
  151PROX   H3134057  14.603  13.907  14.028
  151PROX   H3234058  14.455  13.944  13.921
  151PROX   H3334059  14.582  13.833  13.862
  152PROX    O134060  14.778  14.033  13.850
  152PROX    C134061  14.815  13.923  13.770
  152PROX   H1134062  14.797  13.835  13.834
  152PROX   H1334063  14.767  13.919  13.669
  152PROX    C234064  14.969  13.928  13.739
  152PROX   H2134065  14.999  14.035  13.729
  152PROX    C334066  15.000  13.852  13.606
  152PROX   H3134067  14.923  13.773  13.596
  152PROX   H3234068  14.983  13.933  13.532
  152PROX   H3334069  15.106  13.818  13.604
  153PROX    O134070  15.038  13.871  13.850
  153PROX    C134071  15.083  13.967  13.946
  153PROX   H1134072  15.185  14.004  13.923
  153PROX   H1334073  15.019  14.057  13.935
  153PROX    C234074  15.076  13.905  14.087
  153PROX   H2134075  15.129  13.808  14.087
  153PROX    C334076  14.936  13.884  14.133
  153PROX   H3134077  14.885  13.819  14.059
  153PROX   H3234078  14.927  13.846  14.238
  153PROX   H3334079  14.874  13.976  14.136
  154PROX    O134080  15.145  13.983  14.186
  154PROX    C134081  15.287  14.002  14.159
  154PROX   H1134082  15.319  13.931  14.080
  154PROX   H1334083  15.308  14.101  14.116
  154PROX    C234084  15.370  13.979  14.291
  154PROX   H2134085  15.325  14.034  14.376
  154PROX    C334086  15.522  14.012  14.273
  154PROX   H3134087  15.586  13.974  14.356
  154PROX   H3234088  15.561  13.949  14.190
  154PROX   H3334089  15.536  14.120  14.255
  155PROX    O134090  15.362  13.840  14.323
  155PROX    C134091  15.341  13.811  14.456
  155PROX   H1134092  15.394  13.717  14.477
  155PROX   H1334093  15.389  13.893  14.515
  155PROX    C234094  15.193  13.796  14.485
  155PROX   H2134095  15.127  13.856  14.418
  155PROX    C334096  15.163  13.835  14.634
  155PROX   H3134097  15.052  13.830  14.642
  155PROX   H3234098  15.208  13.765  14.707
  155PROX   H3334099  15.208  13.936  14.643
  156PROX    O134100  15.164  13.663  14.465
  156PROX    C134101  15.157  13.623  14.329
  156PROX   H1134102  15.099  13.696  14.267
  156PROX   H1334103  15.260  13.620  14.290
  156PROX    C234104  15.099  13.484  14.324
  156PROX   H2134105  15.031  13.474  14.412
  156PROX    C334106  15.197  13.371  14.324
  156PROX   H3134107  15.260  13.364  14.232
  156PROX   H3234108  15.273  13.385  14.403
  156PROX   H3334109  15.139  13.279  14.346
  157PROX    O134110  15.016  13.484  14.206
  157PROX    C134111  14.904  13.395  14.225
  157PROX   H1134112  14.930  13.288  14.211
  157PROX   H1334113  14.868  13.397  14.330
  157PROX    C234114  14.793  13.432  14.122
  157PROX   H2134115  14.776  13.542  14.119
  157PROX    C334116  14.653  13.376  14.143
  157PROX   H3134117  14.616  13.397  14.246
  157PROX   H3234118  14.576  13.413  14.073
  157PROX   H3334119  14.648  13.269  14.112
  158PROX    O134120  14.825  13.390  13.994
  158PROX    C134121  14.905  13.480  13.917
  158PROX   H1134122  14.853  13.504  13.821
  158PROX   H1334123  14.910  13.572  13.979
  158PROX    C234124  15.052  13.440  13.899
  158PROX   H2134125  15.092  13.415  13.999
  158PROX    C334126  15.141  13.560  13.853
  158PROX   H3134127  15.171  13.622  13.940
  158PROX   H3234128  15.234  13.522  13.805
  158PROX   H3334129  15.091  13.621  13.774
  159PROX    O134130  15.046  13.341  13.801
  159PROX    C134131  15.036  13.212  13.867
  159PROX   H1134132  14.947  13.209  13.933
  159PROX   H1334133  15.017  13.135  13.790
  159PROX    C234134  15.163  13.172  13.948
  159PROX   H2134135  15.184  13.242  14.032
  159PROX    C334136  15.284  13.171  13.867
  159PROX   H3134137  15.378  13.177  13.927
  159PROX   H3234138  15.294  13.074  13.815
  159PROX   H3334139  15.282  13.251  13.790
  160PROX    O134140  15.136  13.039  14.000
  160PROX    C134141  15.223  13.012  14.112
  160PROX   H1134142  15.324  13.007  14.065
  160PROX   H1334143  15.229  13.095  14.185
  160PROX    C234144  15.174  12.877  14.171
  160PROX   H2134145  15.144  12.808  14.090
  160PROX    C334146  15.063  12.905  14.267
  160PROX   H3134147  15.091  12.972  14.351
  160PROX   H3234148  14.977  12.946  14.209
  160PROX   H3334149  15.025  12.812  14.315
  161PROX    O134150  15.282  12.826  14.253
  161PROX    C134151  15.376  12.741  14.182
  161PROX   H1134152  15.328  12.660  14.123
  161PROX   H1334153  15.424  12.809  14.109
  161PROX    C234154  15.480  12.682  14.276
  161PROX   H2134155  15.512  12.749  14.359
  161PROX    C334156  15.611  12.644  14.197
  161PROX   H3134157  15.681  12.605  14.274
  161PROX   H3234158  15.583  12.561  14.130
  161PROX   H3334159  15.647  12.726  14.131
  162PROX    O134160  15.437  12.561  14.337
  162PROX    C134161  15.336  12.579  14.446
  162PROX   H1134162  15.263  12.652  14.406
  162PROX   H1334163  15.282  12.485  14.472
  162PROX    C234164  15.394  12.644  14.574
  162PROX   H2134165  15.451  12.738  14.555
  162PROX    C334166  15.494  12.555  14.644
  162PROX   H3134167  15.526  12.602  14.740
  162PROX   H3234168  15.455  12.453  14.661
  162PROX   H3334169  15.588  12.550  14.586
  163PROX    O134170  15.292  12.678  14.667
  163PROX    C134171  15.324  12.791  14.753
  163PROX   H1134172  15.300  12.764  14.858
  163PROX   H1334173  15.431  12.820  14.753
  163PROX    C234174  15.255  12.918  14.704
  163PROX   H2134175  15.148  12.892  14.722
  163PROX    C334176  15.259  12.953  14.551
  163PROX   H3134177  15.194  13.037  14.520
  163PROX   H3234178  15.366  12.960  14.522
  163PROX   H3334179  15.221  12.862  14.500
  164PROX    O134180  15.298  13.031  14.786
  164PROX    C134181  15.235  13.150  14.748
  164PROX   H1134182  15.291  13.199  14.664
  164PROX   H1334183  15.130  13.139  14.713
  164PROX    C234184  15.237  13.258  14.863
  164PROX   H2134185  15.182  13.219  14.951
  164PROX    C334186  15.179  13.389  14.807
  164PROX   H3134187  15.244  13.427  14.725
  164PROX   H3234188  15.074  13.386  14.771
  164PROX   H3334189  15.175  13.469  14.884
  165PROX    O134190  15.373  13.298  14.900
  165PROX    C134191  15.452  13.207  14.975
  165PROX   H1134192  15.390  13.149  15.046
  165PROX   H1334193  15.485  13.121  14.914
  165PROX    C234194  15.579  13.269  15.024
  165PROX   H2134195  15.553  13.351  15.095
  165PROX    C334196  15.654  13.332  14.902
  165PROX   H3134197  15.663  13.252  14.825
  165PROX   H3234198  15.592  13.419  14.870
  165PROX   H3334199  15.759  13.358  14.925
  166ETHO    O134200  15.655  13.165  15.084
  166ETHO    C134201  15.642  13.155  15.226
  166ETHO   H1134202  15.608  13.052  15.247
  166ETHO   H1334203  15.565  13.228  15.261
  166ETHO    C234204  15.765  13.189  15.308
  166ETHO   H2134205  15.802  13.291  15.283
  166ETHO   H2334206  15.855  13.129  15.283
  167ETHO    O134207  15.744  13.181  15.454
  167ETHO    C134208  15.854  13.238  15.529
  167ETHO   H1134209  15.947  13.182  15.505
  167ETHO   H1334210  15.877  13.343  15.499
  167ETHO    C234211  15.835  13.194  15.675
  167ETHO   H2134212  15.800  13.089  15.679
  167ETHO   H2334213  15.752  13.264  15.696
  168ETHO    O134214  15.937  13.210  15.767
  168ETHO    C134215  15.892  13.183  15.899
  168ETHO   H1134216  15.857  13.078  15.901
  168ETHO   H1334217  15.806  13.248  15.927
  168ETHO    C234218  16.003  13.189  16.002
  168ETHO   H2134219  16.099  13.152  15.961
  168ETHO   H2334220  15.979  13.116  16.082
  169ETHO    O134221  16.033  13.315  16.054
  169ETHO    C134222  16.119  13.387  15.969
  169ETHO   H1134223  16.210  13.327  15.949
  169ETHO   H1334224  16.064  13.399  15.873
  169ETHO    C234225  16.157  13.525  16.028
  169ETHO   H2134226  16.062  13.566  16.069
  169ETHO   H2334227  16.198  13.593  15.951
  170ETHO    O134228  16.255  13.526  16.134
  170ETHO    C134229  16.262  13.649  16.203
  170ETHO   H1134230  16.167  13.671  16.255
  170ETHO   H1334231  16.297  13.724  16.128
  170ETHO    C234232  16.369  13.645  16.318
  170ETHO   H2134233  16.442  13.572  16.277
  170ETHO   H2334234  16.340  13.593  16.412
  171ETHO    O134235  16.416  13.772  16.354
  171ETHO    C134236  16.533  13.767  16.440
  171ETHO   H1134237  16.597  13.686  16.399
  171ETHO   H1334238  16.589  13.861  16.422
  171ETHO    C234239  16.520  13.747  16.591
  171ETHO   H2134240  16.452  13.664  16.622
  171ETHO   H2334241  16.479  13.840  16.636
  172ETHO    O134242  16.647  13.715  16.656
  172ETHO    C134243  16.642  13.703  16.795
  172ETHO   H1134244  16.568  13.770  16.843
  172ETHO   H1334245  16.741  13.725  16.840
  172ETHO    C234246  16.606  13.562  16.845
  172ETHO   H2134247  16.674  13.484  16.805
  172ETHO   H2334248  16.503  13.537  16.809
  173ETHO    O134249  16.608  13.566  16.987
  173ETHO    C134250  16.611  13.441  17.056
  173ETHO   H1134251  16.507  13.405  17.065
  173ETHO   H1334252  16.672  13.368  16.999
  173ETHO    C234253  16.673  13.461  17.190
  173ETHO   H2134254  16.617  13.533  17.253
  173ETHO   H2334255  16.674  13.368  17.252
  174ETHO    O134256  16.805  13.518  17.196
  174ETHO    C134257  16.902  13.423  17.163
  174ETHO   H1134258  16.894  13.338  17.234
  174ETHO   H1334259  16.886  13.394  17.057
  174ETHO    C234260  17.040  13.489  17.172
  174ETHO   H2134261  17.051  13.531  17.274
  174ETHO   H2334262  17.049  13.577  17.105
  175ETHO    O134263  17.153  13.395  17.164
  175ETHO    C134264  17.287  13.454  17.164
  175ETHO   H1134265  17.356  13.368  17.149
  175ETHO   H1334266  17.301  13.517  17.073
  175ETHO    C234267  17.323  13.524  17.300
  175ETHO   H2134268  17.314  13.448  17.380
  175ETHO   H2334269  17.267  13.619  17.316
  176ETHO    O134270  17.460  13.558  17.298
  176ETHO    C134271  17.500  13.601  17.421
  176ETHO   H1134272  17.486  13.711  17.416
  176ETHO   H1334273  17.437  13.553  17.499
  176ETHO    C234274  17.647  13.561  17.446
  176ETHO   H2134275  17.665  13.452  17.439
  176ETHO   H2334276  17.682  13.595  17.546
  177ETHO    O134277  17.738  13.637  17.363
  177ETHO    C134278  17.870  13.582  17.373
  177ETHO   H1134279  17.863  13.487  17.316
  177ETHO   H1334280  17.901  13.552  17.476
  177ETHO    C234281  17.969  13.684  17.313
  177ETHO   H2134282  17.930  13.696  17.209
  177ETHO   H2334283  18.072  13.643  17.312
  178ETHO    O134284  17.969  13.814  17.369
  178ETHO    C134285  18.092  13.873  17.388
  178ETHO   H1134286  18.154  13.847  17.299
  178ETHO   H1334287  18.078  13.982  17.408
  178ETHO    C234288  18.163  13.820  17.513
  178ETHO   H2134289  18.180  13.710  17.506
  178ETHO   H2334290  18.092  13.838  17.596
  179ETHO    O134291  18.287  13.887  17.547
  179ETHO    C134292  18.398  13.824  17.468
  179ETHO   H1134293  18.375  13.829  17.359
  179ETHO   H1334294  18.388  13.717  17.497
  179ETHO    C234295  18.538  13.872  17.498
  179ETHO   H2134296  18.547  13.982  17.488
  179ETHO   H2334297  18.610  13.823  17.430
  180ETHO    O134298  18.589  13.835  17.623
  180ETHO    C134299  18.729  13.852  17.613
  180ETHO   H1134300  18.787  13.784  17.547
  180ETHO   H1334301  18.749  13.953  17.572
  180ETHO    C234302  18.799  13.845  17.752
  180ETHO   H2134303  18.784  13.939  17.810
  180ETHO   H2334304  18.908  13.833  17.734
  181ETHO    O134305  18.764  13.718  17.813
  181ETHO    C134306  18.857  13.685  17.915
  181ETHO   H1134307  18.957  13.662  17.873
  181ETHO   H1334308  18.819  13.591  17.961
  181ETHO    C234309  18.850  13.789  18.028
  181ETHO   H2134310  18.743  13.808  18.049
  181ETHO   H2334311  18.904  13.881  17.994
  182ETHO    O134312  18.920  13.739  18.142
  182ETHO    C134313  18.929  13.839  18.244
  182ETHO   H1134314  18.995  13.920  18.206
  182ETHO   H1334315  18.830  13.889  18.254
  182ETHO    C234316  18.967  13.789  18.389
  182ETHO   H2134317  19.067  13.741  18.384
  182ETHO   H2334318  18.888  13.716  18.418
  183ETHO    O134319  18.959  13.887  18.496
  183ETHO    C134320  19.084  13.951  18.517
  183ETHO   H1134321  19.094  14.035  18.445
  183ETHO   H1334322  19.173  13.885  18.505
  183ETHO    C234323  19.089  14.006  18.663
  183ETHO   H2134324  19.197  14.019  18.684
  183ETHO   H2334325  19.065  13.926  18.736
  184ETHO    O134326  19.015  14.124  18.692
  184ETHO    C134327  19.063  14.204  18.800
  184ETHO   H1134328  19.057  14.142  18.892
  184ETHO   H1334329  19.169  14.234  18.784
  184ETHO    C234330  18.981  14.327  18.830
  184ETHO   H2134331  18.919  14.350  18.741
  184ETHO   H2334332  19.052  14.413  18.841
  185ETHO    O134333  18.901  14.301  18.940
  185ETHO    C134334  18.831  14.416  18.988
  185ETHO   H1134335  18.816  14.490  18.906
  185ETHO   H1334336  18.728  14.394  19.023
  185ETHO    C234337  18.887  14.481  19.106
  185ETHO   H2134338  18.980  14.534  19.079
  185ETHO   H2334339  18.914  14.403  19.179
  186ETHO    O134340  18.789  14.569  19.166
  186ETHO    C134341  18.855  14.635  19.274
  186ETHO   H1134342  18.827  14.579  19.365
  186ETHO   H1334343  18.965  14.653  19.265
  186ETHO    C234344  18.789  14.773  19.293
  186ETHO   H2134345  18.809  14.810  19.395
  186ETHO   H2334346  18.682  14.743  19.292
  187ETHO    O134347  18.837  14.865  19.196
  187ETHO    C134348  18.735  14.960  19.164
  187ETHO   H1134349  18.749  14.995  19.059
  187ETHO   H1334350  18.639  14.908  19.182
  187ETHO    C234351  18.734  15.077  19.264
  187ETHO   H2134352  18.751  15.047  19.370
  187ETHO   H2334353  18.639  15.134  19.249
  188ETHO    O134354  18.846  15.153  19.231
  188ETHO    C134355  18.850  15.272  19.316
  188ETHO   H1134356  18.847  15.245  19.424
  188ETHO   H1334357  18.766  15.342  19.296
  188ETHO    C234358  18.970  15.370  19.292
  188ETHO   H2134359  19.062  15.309  19.312
  188ETHO   H2334360  18.978  15.458  19.359
  189ETHO    O134361  18.964  15.404  19.160
  189ETHO    C134362  19.093  15.426  19.089
  189ETHO   H1134363  19.157  15.339  19.114
  189ETHO   H1334364  19.100  15.419  18.979
  189ETHO    C234365  19.163  15.551  19.140
  189ETHO   H2134366  19.266  15.554  19.097
  189ETHO   H2334367  19.181  15.550  19.250
  190ETHO    O134368  19.081  15.660  19.100
  190ETHO    C134369  19.152  15.782  19.085
  190ETHO   H1134370  19.206  15.779  18.988
  190ETHO   H1334371  19.217  15.804  19.173
  190ETHO    C234372  19.046  15.893  19.057
  190ETHO   H2134373  18.972  15.867  18.978
  190ETHO   H2334374  19.105  15.983  19.030
  191ETHO    O134375  18.985  15.924  19.180
  191ETHO    C134376  18.883  16.023  19.181
  191ETHO   H1134377  18.793  15.988  19.126
  191ETHO   H1334378  18.861  16.035  19.289
  191ETHO    C234379  18.920  16.162  19.129
  191ETHO   H2134380  19.000  16.206  19.191
  191ETHO   H2334381  18.833  16.228  19.154
  192ETHO    O134382  18.947  16.164  18.989
  192ETHO    C134383  18.999  16.289  18.944
  192ETHO   H1134384  19.089  16.317  19.004
  192ETHO   H1334385  18.926  16.371  18.961
  192ETHO    C234386  19.045  16.281  18.797
  192ETHO   H2134387  19.099  16.186  18.777
  192ETHO   H2334388  19.123  16.356  18.772
  193ETHO    O134389  18.929  16.291  18.711
  193ETHO    C134390  18.969  16.336  18.580
  193ETHO   H1134391  18.877  16.340  18.518
  193ETHO   H1334392  19.006  16.441  18.579
  193ETHO    C234393  19.072  16.239  18.519
  193ETHO   H2134394  19.044  16.134  18.542
  193ETHO   H2334395  19.175  16.256  18.557
  194ETHO    O134396  19.081  16.253  18.382
  194ETHO    C134397  19.167  16.159  18.327
  194ETHO   H1134398  19.131  16.058  18.357
  194ETHO   H1334399  19.269  16.183  18.366
  194ETHO    C234400  19.168  16.141  18.173
  194ETHO   H2134401  19.239  16.059  18.149
  194ETHO   H2334402  19.207  16.229  18.117
  195ETHO    O134403  19.039  16.108  18.119
  195ETHO    C134404  19.047  16.092  17.974
  195ETHO   H1134405  19.058  16.188  17.921
  195ETHO   H1334406  19.126  16.021  17.942
  195ETHO    C234407  18.921  16.013  17.924
  195ETHO   H2134408  18.921  16.010  17.813
  195ETHO   H2334409  18.829  16.067  17.956
  196ETHO    O134410  18.917  15.871  17.952
  196ETHO    C134411  18.801  15.814  17.895
  196ETHO   H1134412  18.717  15.828  17.967
  196ETHO   H1334413  18.759  15.864  17.805
  196ETHO    C234414  18.821  15.668  17.860
  196ETHO   H2134415  18.844  15.618  17.956
  196ETHO   H2334416  18.903  15.660  17.785
  197ETHO    O134417  18.702  15.607  17.800
  197ETHO    C134418  18.727  15.473  17.748
  197ETHO   H1134419  18.820  15.473  17.688
  197ETHO   H1334420  18.743  15.402  17.831
  197ETHO    C234421  18.603  15.436  17.665
  197ETHO   H2134422  18.507  15.439  17.720
  197ETHO   H2334423  18.613  15.331  17.630
  198ETHO    O134424  18.601  15.524  17.553
  198ETHO    C134425  18.534  15.470  17.436
  198ETHO   H1134426  18.431  15.441  17.462
  198ETHO   H1334427  18.537  15.555  17.364
  198ETHO    C234428  18.604  15.351  17.361
  198ETHO   H2134429  18.531  15.288  17.306
  198ETHO   H2334430  18.655  15.284  17.434
  199ETHO    O134431  18.696  15.384  17.263
  199ETHO    C134432  18.786  15.277  17.254
  199ETHO   H1134433  18.746  15.176  17.278
  199ETHO   H1334434  18.862  15.292  17.333
  199ETHO    C234435  18.846  15.291  17.113
  199ETHO   H2134436  18.940  15.231  17.114
  199ETHO   H2334437  18.881  15.396  17.103
  200ETHO    O134438  18.764  15.227  17.020
  200ETHO    C134439  18.797  15.281  16.889
  200ETHO   H1134440  18.907  15.277  16.874
  200ETHO   H1334441  18.765  15.213  16.807
  200ETHO    C234442  18.748  15.424  16.853
  200ETHO   H2134443  18.804  15.449  16.760
  200ETHO   H2334444  18.783  15.495  16.932
  201ETHO    O134445  18.609  15.422  16.817
  201ETHO    C134446  18.558  15.539  16.764
  201ETHO   H1134447  18.632  15.568  16.687
  201ETHO   H1334448  18.546  15.612  16.847
  201ETHO    C234449  18.420  15.512  16.701
  201ETHO   H2134450  18.411  15.430  16.627
  201ETHO   H2334451  18.389  15.601  16.641
  202ETHO    O134452  18.326  15.510  16.809
  202ETHO    C134453  18.208  15.443  16.769
  202ETHO   H1134454  18.229  15.355  16.705
  202ETHO   H1334455  18.150  15.422  16.862
  202ETHO    C234456  18.110  15.522  16.682
  202ETHO   H2134457  18.073  15.618  16.723
  202ETHO   H2334458  18.022  15.455  16.668
  203ETHO    O134459  18.158  15.549  16.552
  203ETHO    C134460  18.082  15.651  16.486
  203ETHO   H1134461  18.101  15.745  16.543
  203ETHO   H1334462  17.979  15.620  16.460
  203ETHO    C234463  18.162  15.713  16.363
  203ETHO   H2134464  18.255  15.766  16.394
  203ETHO   H2334465  18.104  15.794  16.314
  204ETHO    O134466  18.197  15.610  16.273
  204ETHO    C134467  18.233  15.660  16.142
  204ETHO   H1134468  18.233  15.576  16.070
  204ETHO   H1334469  18.161  15.738  16.109
  204ETHO    C234470  18.378  15.718  16.122
  204ETHO   H2134471  18.400  15.786  16.206
  204ETHO   H2334472  18.376  15.775  16.026
  205ETHO    O134473  18.467  15.612  16.105
  205ETHO    C134474  18.598  15.661  16.090
  205ETHO   H1134475  18.630  15.693  16.191
  205ETHO   H1334476  18.592  15.754  16.028
  205ETHO    C234477  18.705  15.554  16.044
  205ETHO   H2134478  18.785  15.611  15.992
  205ETHO   H2334479  18.651  15.481  15.980
  206ETHO    O134480  18.781  15.490  16.152
  206ETHO    C134481  18.870  15.384  16.120
  206ETHO   H1134482  18.882  15.319  16.210
  206ETHO   H1334483  18.834  15.320  16.037
  206ETHO    C234484  19.011  15.426  16.076
  206ETHO   H2134485  19.037  15.370  15.983
  206ETHO   H2334486  19.000  15.535  16.055
  207ETHO    O134487  19.110  15.402  16.180
  207ETHO    C134488  19.239  15.372  16.130
  207ETHO   H1134489  19.254  15.433  16.039
  207ETHO   H1334490  19.237  15.263  16.111
  207ETHO    C234491  19.346  15.392  16.235
  207ETHO   H2134492  19.325  15.330  16.325
  207ETHO   H2334493  19.369  15.497  16.265
  208ETHO    O134494  19.467  15.334  16.186
  208ETHO    C134495  19.530  15.415  16.085
  208ETHO   H1134496  19.461  15.493  16.045
  208ETHO   H1334497  19.607  15.470  16.145
  208ETHO    C234498  19.608  15.334  15.980
  208ETHO   H2134499  19.641  15.394  15.892
  208ETHO   H2334500  19.532  15.266  15.936
  209ETHO    O134501  19.717  15.271  16.038
  209ETHO    C134502  19.808  15.211  15.948
  209ETHO   H1134503  19.866  15.294  15.902
  209ETHO   H1334504  19.746  15.174  15.863
  209ETHO    C234505  19.911  15.123  16.007
  209ETHO   H2134506  19.953  15.177  16.094
  209ETHO   H2334507  19.992  15.119  15.931
  210ETHO    O134508  19.873  15.002  16.058
  210ETHO    C134509  19.791  15.013  16.181
  210ETHO   H1134510  19.834  15.092  16.247
  210ETHO   H1334511  19.690  15.043  16.146
  210ETHO    C234512  19.787  14.882  16.261
  210ETHO   H2134513  19.761  14.917  16.364
  210ETHO   H2334514  19.886  14.834  16.270
  211ETHO    O134515  19.688  14.786  16.221
  211ETHO    C134516  19.688  14.682  16.315
  211ETHO   H1134517  19.794  14.650  16.318
  211ETHO   H1334518  19.666  14.714  16.420
  211ETHO    C234519  19.598  14.556  16.283
  211ETHO   H2134520  19.494  14.589  16.264
  211ETHO   H2334521  19.598  14.487  16.371
  212ETHO    O134522  19.647  14.482  16.172
  212ETHO    C134523  19.552  14.382  16.113
  212ETHO   H1134524  19.450  14.427  16.112
  212ETHO   H1334525  19.569  14.360  16.006
  212ETHO    C234526  19.543  14.245  16.176
  212ETHO   H2134527  19.468  14.185  16.119
  212ETHO   H2334528  19.511  14.251  16.282
  213ETHO    O134529  19.671  14.175  16.163
  213ETHO    C134530  19.688  14.080  16.267
  213ETHO   H1134531  19.693  14.141  16.360
  213ETHO   H1334532  19.602  14.010  16.254
  213ETHO    C234533  19.820  14.003  16.241
  213ETHO   H2134534  19.893  14.086  16.253
  213ETHO   H2334535  19.820  13.962  16.137
  214ETHO    O134536  19.851  13.906  16.340
  214ETHO    C134537  19.973  13.829  16.303
  214ETHO   H1134538  20.028  13.871  16.216
  214ETHO   H1334539  19.947  13.726  16.270
  214ETHO    C234540  20.071  13.814  16.422
  214ETHO   H2134541  20.145  13.734  16.400
  214ETHO   H2334542  20.005  13.765  16.497
  215ETHO    O134543  20.131  13.941  16.448
  215ETHO    C134544  20.240  13.934  16.540
  215ETHO   H1134545  20.246  14.027  16.600
  215ETHO   H1334546  20.217  13.852  16.612
  215ETHO    C234547  20.376  13.906  16.475
  215ETHO   H2134548  20.454  13.940  16.546
  215ETHO   H2334549  20.383  13.970  16.384
  216ETHO    O134550  20.393  13.764  16.446
  216ETHO    C134551  20.504  13.740  16.354
  216ETHO   H1134552  20.596  13.786  16.394
  216ETHO   H1334553  20.478  13.787  16.256
  216ETHO    C234554  20.536  13.592  16.317
  216ETHO   H2134555  20.443  13.547  16.276
  216ETHO   H2334556  20.572  13.541  16.409
  217ETHO    O134557  20.629  13.586  16.206
  217ETHO    C134558  20.675  13.447  16.183
  217ETHO   H1134559  20.760  13.455  16.113
  217ETHO   H1334560  20.722  13.418  16.280
  217ETHO    C234561  20.566  13.351  16.133
  217ETHO   H2134562  20.491  13.324  16.211
  217ETHO   H2334563  20.616  13.254  16.108
  218ETHO    O134564  20.506  13.404  16.016
  218ETHO    C134565  20.409  13.316  15.962
  218ETHO   H1134566  20.375  13.240  16.035
  218ETHO   H1334567  20.450  13.259  15.875
  218ETHO    C234568  20.287  13.390  15.904
  218ETHO   H2134569  20.245  13.447  15.990
  218ETHO   H2334570  20.205  13.316  15.893
  219ETHO    O134571  20.298  13.455  15.776
  219ETHO    C134572  20.182  13.515  15.724
  219ETHO   H1134573  20.155  13.448  15.639
  219ETHO   H1334574  20.099  13.524  15.796
  219ETHO    C234575  20.202  13.655  15.659
  219ETHO   H2134576  20.145  13.657  15.563
  219ETHO   H2334577  20.309  13.671  15.637
  220ETHO    O134578  20.151  13.747  15.758
  220ETHO    C134579  20.170  13.886  15.707
  220ETHO   H1134580  20.255  13.892  15.635
  220ETHO   H1334581  20.211  13.954  15.785
  220ETHO    C234582  20.039  13.939  15.641
  220ETHO   H2134583  20.022  13.876  15.551
  220ETHO   H2334584  20.070  14.041  15.609
  221ETHO    O134585  19.926  13.933  15.722
  221ETHO    C134586  19.812  13.995  15.672
  221ETHO   H1134587  19.835  14.104  15.670
  221ETHO   H1334588  19.791  13.968  15.566
  221ETHO    C234589  19.697  13.959  15.769
  221ETHO   H2134590  19.712  13.984  15.876
  221ETHO   H2334591  19.678  13.850  15.763
  222ETHO    O134592  19.572  14.006  15.722
  222ETHO    C134593  19.473  14.025  15.822
  222ETHO   H1134594  19.448  13.927  15.868
  222ETHO   H1334595  19.514  14.096  15.896
  222ETHO    C234596  19.355  14.089  15.739
  222ETHO   H2134597  19.295  14.015  15.682
  222ETHO   H2334598  19.403  14.166  15.675
  223ETHO    O134599  19.268  14.160  15.825
  223ETHO    C134600  19.192  14.077  15.917
  223ETHO   H1134601  19.147  14.000  15.851
  223ETHO   H1334602  19.260  14.036  15.996
  223ETHO    C234603  19.069  14.141  15.979
  223ETHO   H2134604  19.007  14.056  16.014
  223ETHO   H2334605  19.018  14.194  15.895
  224ETHO    O134606  19.105  14.225  16.086
  224ETHO    C134607  19.174  14.346  16.048
  224ETHO   H1134608  19.277  14.319  16.017
  224ETHO   H1334609  19.129  14.394  15.958
  224ETHO    C234610  19.163  14.447  16.155
  224ETHO   H2134611  19.235  14.527  16.127
  224ETHO   H2334612  19.196  14.399  16.250
  225ETHO    O134613  19.030  14.488  16.181
  225ETHO    C134614  19.026  14.621  16.229
  225ETHO   H1134615  19.065  14.681  16.144
  225ETHO   H1334616  19.103  14.628  16.308
  225ETHO    C234617  18.891  14.673  16.255
  225ETHO   H2134618  18.817  14.619  16.192
  225ETHO   H2334619  18.888  14.782  16.234
  226ETHO    O134620  18.856  14.650  16.391
  226ETHO    C134621  18.721  14.699  16.428
  226ETHO   H1134622  18.712  14.801  16.470
  226ETHO   H1334623  18.651  14.689  16.342
  226ETHO    C234624  18.657  14.604  16.530
  226ETHO   H2134625  18.659  14.496  16.501
  226ETHO   H2334626  18.546  14.613  16.536
  227ETHO    O134627  18.705  14.615  16.660
  227ETHO    C134628  18.627  14.548  16.758
  227ETHO   H1134629  18.637  14.441  16.731
  227ETHO   H1334630  18.520  14.578  16.751
  227ETHO    C234631  18.676  14.585  16.900
  227ETHO   H2134632  18.596  14.544  16.966
  227ETHO   H2334633  18.677  14.695  16.908
  228ETHO    O134634  18.801  14.518  16.936
  228ETHO    C134635  18.855  14.586  17.050
  228ETHO   H1134636  18.869  14.695  17.037
  228ETHO   H1334637  18.782  14.572  17.133
  228ETHO    C234638  18.982  14.513  17.088
  228ETHO   H2134639  18.958  14.405  17.096
  228ETHO   H2334640  19.014  14.557  17.185
  229ETHO    O134641  19.075  14.529  16.981
  229ETHO    C134642  19.197  14.470  17.023
  229ETHO   H1134643  19.181  14.374  17.077
  229ETHO   H1334644  19.238  14.540  17.099
  229ETHO    C234645  19.299  14.442  16.912
  229ETHO   H2134646  19.393  14.419  16.967
  229ETHO   H2334647  19.316  14.538  16.859
  230ETHO    O134648  19.278  14.332  16.817
  230ETHO    C134649  19.386  14.248  16.801
  230ETHO   H1134650  19.475  14.309  16.778
  230ETHO   H1334651  19.411  14.186  16.890
  230ETHO    C234652  19.352  14.162  16.680
  230ETHO   H2134653  19.451  14.129  16.641
  230ETHO   H2334654  19.295  14.195  16.590
  231ETHO    O134655  19.272  14.050  16.729
  231ETHO    C134656  19.250  13.942  16.638
  231ETHO   H1134657  19.342  13.887  16.607
  231ETHO   H1334658  19.201  13.979  16.545
  231ETHO    C234659  19.156  13.843  16.710
  231ETHO   H2134660  19.127  13.782  16.621
  231ETHO   H2334661  19.071  13.898  16.755
  232ETHO    O134662  19.221  13.758  16.814
  232ETHO    C134663  19.145  13.649  16.855
  232ETHO   H1134664  19.058  13.687  16.912
  232ETHO   H1334665  19.097  13.597  16.769
  232ETHO    C234666  19.221  13.547  16.938
  232ETHO   H2134667  19.154  13.482  16.998
  232ETHO   H2334668  19.281  13.594  17.019
  233ETHO    O134669  19.286  13.453  16.853
  233ETHO    C134670  19.348  13.343  16.922
  233ETHO   H1134671  19.414  13.379  17.005
  233ETHO   H1334672  19.270  13.280  16.969
  233ETHO    C234673  19.426  13.258  16.819
  233ETHO   H2134674  19.358  13.251  16.732
  233ETHO   H2334675  19.449  13.156  16.859
  234ETHO    O134676  19.543  13.328  16.775
  234ETHO    C134677  19.644  13.333  16.870
  234ETHO   H1134678  19.601  13.393  16.953
  234ETHO   H1334679  19.675  13.231  16.902
  234ETHO    C234680  19.775  13.397  16.809
  234ETHO   H2134681  19.849  13.413  16.890
  234ETHO   H2334682  19.753  13.493  16.759
  235ETHO    O134683  19.826  13.302  16.719
  235ETHO    C134684  19.949  13.344  16.661
  235ETHO   H1134685  19.934  13.441  16.609
  235ETHO   H1334686  20.015  13.362  16.749
  235ETHO    C234687  20.011  13.243  16.576
  235ETHO   H2134688  20.082  13.293  16.507
  235ETHO   H2334689  19.940  13.182  16.516
  236ETHO    O134690  20.100  13.155  16.652
  236ETHO    C134691  20.164  13.066  16.568
  236ETHO   H1134692  20.224  13.105  16.483
  236ETHO   H1334693  20.088  12.993  16.532
  236ETHO    C234694  20.263  12.996  16.672
  236ETHO   H2134695  20.214  12.959  16.765
  236ETHO   H2334696  20.341  13.073  16.689
  237ETHO    O134697  20.327  12.887  16.615
  237ETHO    C134698  20.465  12.885  16.649
  237ETHO   H1134699  20.517  12.965  16.592
  237ETHO   H1334700  20.480  12.901  16.758
  237ETHO    C234701  20.526  12.742  16.621
  237ETHO   H2134702  20.636  12.754  16.631
  237ETHO   H2334703  20.505  12.700  16.521
  238ETHO    O134704  20.472  12.664  16.722
  238ETHO    C134705  20.498  12.527  16.697
  238ETHO   H1134706  20.428  12.501  16.615
  238ETHO   H1334707  20.451  12.469  16.779
  238ETHO    C234708  20.641  12.489  16.681
  238ETHO   H2134709  20.667  12.523  16.579
  238ETHO   H2334710  20.646  12.379  16.691
  239ETHO    O134711  20.729  12.541  16.781
  239ETHO    C134712  20.867  12.495  16.768
  239ETHO   H1134713  20.909  12.495  16.871
  239ETHO   H1334714  20.867  12.388  16.735
  239ETHO    C234715  20.955  12.580  16.670
  239ETHO   H2134716  21.057  12.539  16.691
  239ETHO   H2334717  20.929  12.571  16.562
  240ETHO    O134718  20.950  12.717  16.699
  240ETHO    C134719  21.020  12.799  16.603
  240ETHO   H1134720  20.955  12.815  16.515
  240ETHO   H1334721  21.120  12.759  16.573
  240ETHO    C234722  21.034  12.933  16.664
  240ETHO   H2134723  20.937  12.972  16.702
  240ETHO   H2334724  21.067  13.012  16.593
  241ETHO    O134725  21.127  12.933  16.772
  241ETHO    C134726  21.130  13.057  16.841
  241ETHO   H1134727  21.169  13.133  16.769
  241ETHO   H1334728  21.026  13.076  16.874
  241ETHO    C234729  21.235  13.061  16.957
  241ETHO   H2134730  21.254  13.161  17.001
  241ETHO   H2334731  21.335  13.024  16.925
  242ETHO    O134732  21.186  12.978  17.064
  242ETHO    C134733  21.288  12.967  17.166
  242ETHO   H1134734  21.386  12.939  17.121
  242ETHO   H1334735  21.264  12.887  17.239
  242ETHO    C234736  21.302  13.097  17.249
  242ETHO   H2134737  21.203  13.148  17.242
  242ETHO   H2334738  21.376  13.158  17.193
  243ETHO    O134739  21.357  13.077  17.376
  243ETHO    C134740  21.326  13.193  17.459
  243ETHO   H1134741  21.243  13.255  17.420
  243ETHO   H1334742  21.301  13.149  17.558
  243ETHO    C234743  21.442  13.293  17.464
  243ETHO   H2134744  21.525  13.248  17.523
  243ETHO   H2334745  21.403  13.377  17.525
  244ETHO    O134746  21.482  13.334  17.336
  244ETHO    C134747  21.576  13.436  17.329
  244ETHO   H1134748  21.639  13.439  17.420
  244ETHO   H1334749  21.520  13.533  17.328
  244ETHO    C234750  21.675  13.424  17.217
  244ETHO   H2134751  21.734  13.330  17.230
  244ETHO   H2334752  21.751  13.504  17.227
  245ETHO    O134753  21.627  13.428  17.084
  245ETHO    C134754  21.708  13.500  16.994
  245ETHO   H1134755  21.812  13.461  17.000
  245ETHO   H1334756  21.663  13.485  16.894
  245ETHO    C234757  21.712  13.651  17.028
  245ETHO   H2134758  21.791  13.694  16.964
  245ETHO   H2334759  21.730  13.689  17.130
  246ETHO    O134760  21.588  13.715  16.991
  246ETHO    C134761  21.612  13.858  16.988
  246ETHO   H1134762  21.712  13.877  16.944
  246ETHO   H1334763  21.620  13.891  17.094
  246ETHO    C234764  21.514  13.944  16.918
  246ETHO   H2134765  21.563  14.042  16.900
  246ETHO   H2334766  21.421  13.955  16.978
  247ETHO    O134767  21.485  13.888  16.787
  247ETHO    C134768  21.416  13.973  16.698
  247ETHO   H1134769  21.439  14.079  16.722
  247ETHO   H1334770  21.454  13.945  16.598
  247ETHO    C234771  21.264  13.956  16.700
  247ETHO   H2134772  21.224  14.016  16.616
  247ETHO   H2334773  21.244  13.848  16.687
  248ETHO    O134774  21.204  14.015  16.823
  248ETHO    C134775  21.159  13.904  16.909
  248ETHO   H1134776  21.058  13.869  16.878
  248ETHO   H1334777  21.227  13.817  16.912
  248ETHO    C234778  21.142  13.954  17.053
  248ETHO   H2134779  21.235  14.011  17.074
  248ETHO   H2334780  21.150  13.861  17.114
  249ETHO    O134781  21.032  14.039  17.076
  249ETHO    C134782  21.010  14.073  17.212
  249ETHO   H1134783  20.956  13.986  17.255
  249ETHO   H1334784  21.107  14.086  17.264
  249ETHO    C234785  20.933  14.206  17.242
  249ETHO   H2134786  20.968  14.285  17.172
  249ETHO   H2334787  20.950  14.234  17.348
  250ETHO    O134788  20.790  14.189  17.223
  250ETHO    C134789  20.713  14.313  17.250
  250ETHO   H1134790  20.721  14.341  17.357
  250ETHO   H1334791  20.750  14.393  17.182
  250ETHO    C234792  20.554  14.305  17.227
  250ETHO   H2134793  20.535  14.278  17.120
  250ETHO   H2334794  20.516  14.407  17.247
  251ETHO    O134795  20.493  14.232  17.326
  251ETHO    C134796  20.359  14.211  17.304
  251ETHO   H1134797  20.352  14.154  17.209
  251ETHO   H1334798  20.311  14.310  17.313
  251ETHO    C234799  20.285  14.121  17.407
  251ETHO   H2134800  20.298  14.167  17.508
  251ETHO   H2334801  20.329  14.019  17.402
  252ETHO    O134802  20.145  14.108  17.381
  252ETHO    C134803  20.080  14.089  17.507
  252ETHO   H1134804  20.119  14.001  17.561
  252ETHO   H1334805  20.104  14.178  17.569
  252ETHO    C234806  19.930  14.074  17.487
  252ETHO   H2134807  19.886  14.168  17.447
  252ETHO   H2334808  19.888  14.058  17.588
  253ETHO    O134809  19.904  13.964  17.401
  253ETHO    C134810  19.765  13.936  17.401
  253ETHO   H1134811  19.707  14.018  17.355
  253ETHO   H1334812  19.737  13.932  17.508
  253ETHO    C234813  19.728  13.799  17.344
  253ETHO   H2134814  19.637  13.760  17.395
  253ETHO   H2334815  19.810  13.725  17.358
  254ETHO    O134816  19.693  13.814  17.208
  254ETHO    C134817  19.640  13.692  17.162
  254ETHO   H1134818  19.725  13.619  17.165
  254ETHO   H1334819  19.571  13.646  17.236
  254ETHO    C234820  19.569  13.696  17.025
  254ETHO   H2134821  19.499  13.782  17.032
  254ETHO   H2334822  19.510  13.602  17.017
  255ETHO    O134823  19.670  13.729  16.926
  255ETHO    C134824  19.609  13.761  16.808
  255ETHO   H1134825  19.538  13.839  16.843
  255ETHO   H1334826  19.549  13.677  16.767
  255ETHO    C234827  19.699  13.819  16.704
  255ETHO   H2134828  19.641  13.851  16.614
  255ETHO   H2334829  19.775  13.747  16.666
  256ETHO    O134830  19.763  13.940  16.754
  256ETHO    C134831  19.858  13.986  16.661
  256ETHO   H1134832  19.940  13.916  16.636
  256ETHO   H1334833  19.801  14.013  16.569
  256ETHO    C234834  19.927  14.109  16.712
  256ETHO   H2134835  19.852  14.171  16.766
  256ETHO   H2334836  19.972  14.168  16.629
  257ETHO    O134837  20.030  14.069  16.799
  257ETHO    C134838  20.109  14.176  16.838
  257ETHO   H1134839  20.046  14.250  16.891
  257ETHO   H1334840  20.152  14.222  16.747
  257ETHO    C234841  20.224  14.137  16.933
  257ETHO   H2134842  20.169  14.085  17.015
  257ETHO   H2334843  20.282  14.226  16.966
  258ETHO    O134844  20.311  14.050  16.858
  258ETHO    C134845  20.422  14.011  16.946
  258ETHO   H1134846  20.476  14.095  16.994
  258ETHO   H1334847  20.389  13.934  17.020
  258ETHO    C234848  20.552  13.956  16.876
  258ETHO   H2134849  20.629  13.961  16.956
  258ETHO   H2334850  20.575  14.010  16.781
  259ETHO    O134851  20.542  13.816  16.831
  259ETHO    C134852  20.670  13.772  16.781
  259ETHO   H1134853  20.680  13.795  16.672
  259ETHO   H1334854  20.752  13.805  16.847
  259ETHO    C234855  20.673  13.616  16.785
  259ETHO   H2134856  20.744  13.571  16.712
  259ETHO   H2334857  20.570  13.573  16.777
  260ETHO    O134858  20.711  13.572  16.917
  260ETHO    C134859  20.686  13.437  16.929
  260ETHO   H1134860  20.580  13.412  16.909
  260ETHO   H1334861  20.751  13.377  16.862
  260ETHO    C234862  20.711  13.371  17.065
  260ETHO   H2134863  20.666  13.270  17.068
  260ETHO   H2334864  20.678  13.433  17.151
  261ETHO    O134865  20.851  13.357  17.073
  261ETHO    C134866  20.891  13.262  17.179
  261ETHO   H1134867  20.811  13.185  17.190
  261ETHO   H1334868  20.973  13.203  17.133
  261ETHO    C234869  20.919  13.334  17.302
  261ETHO   H2134870  20.980  13.425  17.283
  261ETHO   H2334871  20.974  13.269  17.374
  262ETHO    O134872  20.794  13.370  17.362
  262ETHO    C134873  20.798  13.447  17.481
  262ETHO   H1134874  20.859  13.537  17.461
  262ETHO   H1334875  20.850  13.385  17.557
  262ETHO    C234876  20.664  13.507  17.532
  262ETHO   H2134877  20.609  13.551  17.446
  262ETHO   H2334878  20.682  13.588  17.605
  263ETHO    O134879  20.580  13.405  17.592
  263ETHO    C134880  20.504  13.327  17.494
  263ETHO   H1134881  20.578  13.290  17.420
  263ETHO   H1334882  20.450  13.391  17.421
  263ETHO    C234883  20.416  13.210  17.541
  263ETHO   H2134884  20.356  13.181  17.452
  263ETHO   H2334885  20.349  13.253  17.618
  264ETHO    O134886  20.494  13.115  17.595
  264ETHO    C134887  20.432  12.990  17.601
  264ETHO   H1134888  20.399  12.961  17.499
  264ETHO   H1334889  20.338  12.999  17.658
  264ETHO    C234890  20.527  12.877  17.636
  264ETHO   H2134891  20.468  12.782  17.641
  264ETHO   H2334892  20.571  12.909  17.733
  265ETHO    O134893  20.646  12.867  17.553
  265ETHO    C134894  20.607  12.820  17.427
  265ETHO   H1134895  20.546  12.728  17.442
  265ETHO   H1334896  20.557  12.902  17.372
  265ETHO    C234897  20.722  12.786  17.329
  265ETHO   H2134898  20.675  12.747  17.236
  265ETHO   H2334899  20.784  12.703  17.372
  265ETHO    OZ34900  20.801  12.900  17.291
  265ETHO   HZ134901  20.825  12.957  17.364
    1ETHO    O134902   4.090  10.980  11.606
    1ETHO   HO134903   4.033  10.923  11.657
    1ETHO    C134904   4.076  11.115  11.658
    1ETHO   H1134905   4.077  11.110  11.769
    1ETHO   H1334906   3.980  11.161  11.627
    1ETHO    C234907   4.198  11.213  11.624
    1ETHO   H2134908   4.165  11.316  11.649
    1ETHO   H2334909   4.216  11.217  11.515
    2ETHO    O134910   4.324  11.194  11.691
    2ETHO    C134911   4.321  11.237  11.824
    2ETHO   H1134912   4.315  11.348  11.825
    2ETHO   H1334913   4.237  11.186  11.876
    2ETHO    C234914   4.462  11.215  11.896
    2ETHO   H2134915   4.444  11.259  11.996
    2ETHO   H2334916   4.538  11.274  11.839
    3ETHO    O134917   4.491  11.080  11.926
    3ETHO    C134918   4.615  11.081  11.996
    3ETHO   H1134919   4.609  11.142  12.089
    3ETHO   H1334920   4.692  11.140  11.942
    3ETHO    C234921   4.657  10.941  12.019
    3ETHO   H2134922   4.762  10.941  12.055
    3ETHO   H2334923   4.657  10.877  11.928
    4ETHO    O134924   4.578  10.877  12.123
    4ETHO    C134925   4.605  10.927  12.259
    4ETHO   H1134926   4.714  10.930  12.279
    4ETHO   H1334927   4.564  11.030  12.266
    4ETHO    C234928   4.530  10.846  12.364
    4ETHO   H2134929   4.443  10.793  12.320
    4ETHO   H2334930   4.503  10.927  12.435
    5ETHO    O134931   4.622  10.759  12.436
    5ETHO    C134932   4.562  10.672  12.530
    5ETHO   H1134933   4.504  10.716  12.614
    5ETHO   H1334934   4.495  10.606  12.472
    5ETHO    C234935   4.657  10.569  12.590
    5ETHO   H2134936   4.602  10.505  12.662
    5ETHO   H2334937   4.740  10.615  12.647
    6ETHO    O134938   4.704  10.494  12.480
    6ETHO    C134939   4.819  10.410  12.512
    6ETHO   H1134940   4.868  10.441  12.606
    6ETHO   H1334941   4.780  10.308  12.532
    6ETHO    C234942   4.919  10.390  12.399
    6ETHO   H2134943   4.880  10.362  12.299
    6ETHO   H2334944   4.990  10.311  12.431
    7ETHO    O134945   5.007  10.501  12.370
    7ETHO    C134946   4.948  10.605  12.290
    7ETHO   H1134947   4.878  10.561  12.216
    7ETHO   H1334948   4.902  10.678  12.360
    7ETHO    C234949   5.066  10.674  12.220
    7ETHO   H2134950   5.140  10.698  12.300
    7ETHO   H2334951   5.032  10.769  12.174
    8ETHO    O134952   5.126  10.593  12.121
    8ETHO    C134953   5.257  10.647  12.085
    8ETHO   H1134954   5.324  10.654  12.174
    8ETHO   H1334955   5.253  10.750  12.043
    8ETHO    C234956   5.324  10.554  11.984
    8ETHO   H2134957   5.331  10.457  12.038
    8ETHO   H2334958   5.430  10.580  11.965
    9ETHO    O134959   5.237  10.535  11.871
    9ETHO    C134960   5.307  10.545  11.742
    9ETHO   H1134961   5.363  10.639  11.758
    9ETHO   H1334962   5.379  10.462  11.724
    9ETHO    C234963   5.217  10.562  11.615
    9ETHO   H2134964   5.279  10.621  11.544
    9ETHO   H2334965   5.133  10.624  11.653
   10ETHO    O134966   5.182  10.434  11.559
   10ETHO    C134967   5.088  10.360  11.643
   10ETHO   H1134968   5.013  10.436  11.674
   10ETHO   H1334969   5.124  10.334  11.744
   10ETHO    C234970   5.009  10.248  11.571
   10ETHO   H2134971   4.967  10.289  11.477
   10ETHO   H2334972   4.931  10.205  11.637
   11ETHO    O134973   5.096  10.147  11.531
   11ETHO    C134974   5.027  10.033  11.491
   11ETHO   H1134975   4.954   9.992  11.565
   11ETHO   H1334976   4.964  10.060  11.404
   11ETHO    C234977   5.121   9.923  11.444
   11ETHO   H2134978   5.061   9.847  11.390
   11ETHO   H2334979   5.195   9.978  11.382
   12ETHO    O134980   5.194   9.864  11.551
   12ETHO    C134981   5.256   9.742  11.512
   12ETHO   H1134982   5.352   9.769  11.464
   12ETHO   H1334983   5.204   9.702  11.423
   12ETHO    C234984   5.283   9.626  11.620
   12ETHO   H2134985   5.314   9.538  11.559
   12ETHO   H2334986   5.195   9.615  11.687
   13ETHO    O134987   5.398   9.655  11.700
   13ETHO    C134988   5.366   9.727  11.820
   13ETHO   H1134989   5.299   9.814  11.801
   13ETHO   H1334990   5.318   9.656  11.892
   13ETHO    C234991   5.501   9.772  11.880
   13ETHO   H2134992   5.562   9.839  11.816
   13ETHO   H2334993   5.554   9.675  11.897
   14ETHO    O134994   5.482   9.821  12.012
   14ETHO    C134995   5.605   9.872  12.058
   14ETHO   H1134996   5.616   9.971  12.009
   14ETHO   H1334997   5.689   9.803  12.032
   14ETHO    C234998   5.621   9.877  12.211
   14ETHO   H2134999   5.721   9.922  12.230
   14ETHO   H2335000   5.630   9.771  12.241
   15ETHO    O135001   5.520   9.946  12.272
   15ETHO    C135002   5.546   9.970  12.415
   15ETHO   H1135003   5.545   9.882  12.483
   15ETHO   H1335004   5.645  10.018  12.434
   15ETHO    C235005   5.441  10.062  12.479
   15ETHO   H2135006   5.338  10.026  12.461
   15ETHO   H2335007   5.451  10.076  12.589
   16ETHO    O135008   5.463  10.186  12.408
   16ETHO    C135009   5.389  10.289  12.467
   16ETHO   H1135010   5.291  10.246  12.498
   16ETHO   H1335011   5.441  10.323  12.560
   16ETHO    C235012   5.357  10.390  12.364
   16ETHO   H2135013   5.282  10.463  12.401
   16ETHO   H2335014   5.325  10.359  12.262
   17ETHO    O135015   5.467  10.478  12.347
   17ETHO    C135016   5.575  10.427  12.266
   17ETHO   H1135017   5.637  10.368  12.337
   17ETHO   H1335018   5.540  10.363  12.183
   17ETHO    C235019   5.664  10.532  12.196
   17ETHO   H2135020   5.603  10.610  12.146
   17ETHO   H2335021   5.712  10.461  12.124
   18ETHO    O135022   5.758  10.599  12.278
   18ETHO    C135023   5.876  10.625  12.203
   18ETHO   H1135024   5.939  10.536  12.181
   18ETHO   H1335025   5.856  10.666  12.102
   18ETHO    C235026   5.968  10.722  12.275
   18ETHO   H2135027   5.918  10.820  12.296
   18ETHO   H2335028   6.057  10.744  12.213
   19ETHO    O135029   6.010  10.671  12.403
   19ETHO    C135030   6.126  10.731  12.451
   19ETHO   H1135031   6.211  10.717  12.381
   19ETHO   H1335032   6.151  10.675  12.544
   19ETHO    C235033   6.116  10.886  12.483
   19ETHO   H2135034   6.098  10.951  12.395
   19ETHO   H2335035   6.215  10.921  12.519
   20ETHO    O135036   6.019  10.922  12.581
   20ETHO    C135037   6.059  11.038  12.647
   20ETHO   H1135038   6.164  11.028  12.681
   20ETHO   H1335039   6.046  11.115  12.568
   20ETHO    C235040   5.978  11.084  12.769
   20ETHO   H2135041   6.019  11.177  12.814
   20ETHO   H2335042   5.979  11.002  12.844
   21ETHO    O135043   5.838  11.101  12.729
   21ETHO    C135044   5.762  11.155  12.831
   21ETHO   H1135045   5.788  11.091  12.918
   21ETHO   H1335046   5.654  11.138  12.808
   21ETHO    C235047   5.775  11.312  12.850
   21ETHO   H2135048   5.672  11.351  12.860
   21ETHO   H2335049   5.819  11.362  12.761
   22ETHO    O135050   5.846  11.345  12.968
   22ETHO    C135051   5.830  11.486  12.990
   22ETHO   H1135052   5.889  11.541  12.913
   22ETHO   H1335053   5.720  11.503  12.993
   22ETHO    C235054   5.883  11.522  13.132
   22ETHO   H2135055   5.882  11.630  13.157
   22ETHO   H2335056   5.819  11.463  13.202
   23ETHO    O135057   6.023  11.481  13.155
   23ETHO    C135058   6.037  11.439  13.286
   23ETHO   H1135059   5.972  11.355  13.318
   23ETHO   H1335060   6.005  11.524  13.351
   23ETHO    C235061   6.180  11.406  13.332
   23ETHO   H2135062   6.183  11.406  13.443
   23ETHO   H2335063   6.252  11.486  13.302
   24ETHO    O135064   6.243  11.285  13.283
   24ETHO    C135065   6.360  11.252  13.353
   24ETHO   H1135066   6.409  11.346  13.386
   24ETHO   H1335067   6.324  11.203  13.446
   24ETHO    C235068   6.446  11.158  13.270
   24ETHO   H2135069   6.395  11.075  13.216
   24ETHO   H2335070   6.533  11.128  13.332
   25ETHO    O135071   6.504  11.239  13.171
   25ETHO    C135072   6.588  11.151  13.094
   25ETHO   H1135073   6.531  11.064  13.053
   25ETHO   H1335074   6.672  11.127  13.162
   25ETHO    C235075   6.664  11.216  12.975
   25ETHO   H2135076   6.737  11.141  12.939
   25ETHO   H2335077   6.718  11.309  13.004
   26ETHO    O135078   6.578  11.260  12.880
   26ETHO    C135079   6.645  11.335  12.772
   26ETHO   H1135080   6.746  11.293  12.750
   26ETHO   H1335081   6.594  11.304  12.678
   26ETHO    C235082   6.638  11.486  12.800
   26ETHO   H2135083   6.533  11.522  12.796
   26ETHO   H2335084   6.694  11.531  12.714
   27ETHO    O135085   6.715  11.512  12.915
   27ETHO    C135086   6.719  11.651  12.939
   27ETHO   H1135087   6.617  11.695  12.931
   27ETHO   H1335088   6.775  11.702  12.858
   27ETHO    C235089   6.777  11.674  13.084
   27ETHO   H2135090   6.814  11.779  13.091
   27ETHO   H2335091   6.857  11.599  13.103
   28ETHO    O135092   6.675  11.650  13.179
   28ETHO    C135093   6.712  11.660  13.315
   28ETHO   H1135094   6.796  11.590  13.330
   28ETHO   H1335095   6.748  11.762  13.342
   28ETHO    C235096   6.591  11.617  13.407
   28ETHO   H2135097   6.631  11.616  13.511
   28ETHO   H2335098   6.567  11.514  13.374
   29ETHO    O135099   6.485  11.710  13.399
   29ETHO    C135100   6.375  11.681  13.484
   29ETHO   H1135101   6.390  11.719  13.587
   29ETHO   H1335102   6.351  11.573  13.475
   29ETHO    C235103   6.253  11.760  13.429
   29ETHO   H2135104   6.235  11.724  13.326
   29ETHO   H2335105   6.284  11.866  13.424
   30ETHO    O135106   6.145  11.752  13.524
   30ETHO    C135107   6.040  11.840  13.489
   30ETHO   H1135108   6.080  11.942  13.476
   30ETHO   H1335109   6.010  11.818  13.384
   30ETHO    C235110   5.921  11.848  13.594
   30ETHO   H2135111   5.847  11.924  13.559
   30ETHO   H2335112   5.960  11.880  13.693
   31ETHO    O135113   5.860  11.726  13.613
   31ETHO    C135114   5.773  11.705  13.721
   31ETHO   H1135115   5.728  11.604  13.721
   31ETHO   H1335116   5.826  11.725  13.816
   31ETHO    C235117   5.652  11.801  13.708
   31ETHO   H2135118   5.562  11.750  13.749
   31ETHO   H2335119   5.640  11.811  13.599
   32ETHO    O135120   5.674  11.920  13.787
   32ETHO    C135121   5.592  12.030  13.741
   32ETHO   H1135122   5.601  12.036  13.630
   32ETHO   H1335123   5.491  12.014  13.784
   32ETHO    C235124   5.637  12.174  13.784
   32ETHO   H2135125   5.571  12.254  13.744
   32ETHO   H2335126   5.738  12.194  13.742
   33ETHO    O135127   5.636  12.177  13.926
   33ETHO    C135128   5.675  12.305  13.980
   33ETHO   H1135129   5.786  12.307  13.993
   33ETHO   H1335130   5.649  12.386  13.909
   33ETHO    C235131   5.616  12.315  14.120
   33ETHO   H2135132   5.645  12.413  14.162
   33ETHO   H2335133   5.647  12.235  14.190
   34ETHO    O135134   5.472  12.313  14.122
   34ETHO    C135135   5.423  12.335  14.255
   34ETHO   H1135136   5.448  12.443  14.267
   34ETHO   H1335137   5.463  12.269  14.334
   34ETHO    C235138   5.267  12.326  14.250
   34ETHO   H2135139   5.243  12.339  14.143
   34ETHO   H2335140   5.224  12.403  14.318
   35ETHO    O135141   5.224  12.196  14.305
   35ETHO    C135142   5.121  12.146  14.221
   35ETHO   H1135143   5.145  12.166  14.114
   35ETHO   H1335144   5.107  12.036  14.234
   35ETHO    C235145   4.983  12.213  14.257
   35ETHO   H2135146   4.959  12.201  14.365
   35ETHO   H2335147   4.908  12.154  14.200
   36ETHO    O135148   4.977  12.344  14.194
   36ETHO    C135149   4.903  12.432  14.279
   36ETHO   H1135150   4.967  12.456  14.366
   36ETHO   H1335151   4.807  12.386  14.311
   36ETHO    C235152   4.867  12.554  14.199
   36ETHO   H2135153   4.791  12.608  14.260
   36ETHO   H2335154   4.826  12.537  14.097
   37ETHO    O135155   4.982  12.644  14.188
   37ETHO    C135156   4.936  12.763  14.125
   37ETHO   H1135157   4.852  12.805  14.183
   37ETHO   H1335158   5.019  12.836  14.119
   37ETHO    C235159   4.889  12.751  13.978
   37ETHO   H2135160   4.944  12.679  13.913
   37ETHO   H2335161   4.904  12.852  13.936
   38ETHO    O135162   4.751  12.734  13.960
   38ETHO    C135163   4.713  12.732  13.821
   38ETHO   H1135164   4.756  12.638  13.779
   38ETHO   H1335165   4.755  12.806  13.750
   38ETHO    C235166   4.562  12.713  13.797
   38ETHO   H2135167   4.529  12.621  13.851
   38ETHO   H2335168   4.535  12.680  13.695
   39ETHO    O135169   4.474  12.821  13.832
   39ETHO    C135170   4.342  12.778  13.806
   39ETHO   H1135171   4.329  12.792  13.696
   39ETHO   H1335172   4.334  12.668  13.820
   39ETHO    C235173   4.223  12.851  13.872
   39ETHO   H2135174   4.121  12.815  13.845
   39ETHO   H2335175   4.237  12.953  13.830
   40ETHO    O135176   4.219  12.860  14.017
   40ETHO    C135177   4.150  12.742  14.065
   40ETHO   H1135178   4.162  12.661  13.991
   40ETHO   H1335179   4.043  12.769  14.051
   40ETHO    C235180   4.191  12.695  14.213
   40ETHO   H2135181   4.151  12.772  14.283
   40ETHO   H2335182   4.300  12.676  14.218
   41ETHO    O135183   4.123  12.578  14.253
   41ETHO    C135184   3.988  12.600  14.282
   41ETHO   H1135185   3.963  12.686  14.348
   41ETHO   H1335186   3.931  12.603  14.187
   41ETHO    C235187   3.933  12.467  14.351
   41ETHO   H2135188   3.824  12.470  14.371
   41ETHO   H2335189   3.989  12.445  14.445
   42ETHO    O135190   3.957  12.358  14.256
   42ETHO    C135191   3.949  12.227  14.307
   42ETHO   H1135192   3.855  12.220  14.367
   42ETHO   H1335193   3.929  12.153  14.227
   42ETHO    C235194   4.068  12.176  14.392
   42ETHO   H2135195   4.028  12.090  14.450
   42ETHO   H2335196   4.106  12.263  14.451
   43ETHO    O135197   4.169  12.132  14.296
   43ETHO    C135198   4.227  12.008  14.336
   43ETHO   H1135199   4.274  12.024  14.435
   43ETHO   H1335200   4.147  11.932  14.352
   43ETHO    C235201   4.328  11.956  14.240
   43ETHO   H2135202   4.415  11.907  14.289
   43ETHO   H2335203   4.375  12.045  14.191
   44ETHO    O135204   4.258  11.885  14.135
   44ETHO    C135205   4.353  11.817  14.054
   44ETHO   H1135206   4.307  11.810  13.953
   44ETHO   H1335207   4.449  11.871  14.038
   44ETHO    C235208   4.394  11.677  14.106
   44ETHO   H2135209   4.440  11.688  14.206
   44ETHO   H2335210   4.464  11.634  14.030
   45ETHO    O135211   4.277  11.599  14.109
   45ETHO    C135212   4.304  11.462  14.134
   45ETHO   H1135213   4.218  11.418  14.187
   45ETHO   H1335214   4.391  11.454  14.203
   45ETHO    C235215   4.312  11.382  14.003
   45ETHO   H2135216   4.365  11.290  14.034
   45ETHO   H2335217   4.375  11.436  13.928
   46ETHO    O135218   4.186  11.347  13.945
   46ETHO    C135219   4.192  11.241  13.851
   46ETHO   H1135220   4.265  11.272  13.773
   46ETHO   H1335221   4.244  11.156  13.901
   46ETHO    C235222   4.054  11.216  13.791
   46ETHO   H2135223   3.981  11.211  13.874
   46ETHO   H2335224   4.050  11.118  13.741
   47ETHO    O135225   4.008  11.318  13.707
   47ETHO    C135226   3.869  11.311  13.692
   47ETHO   H1135227   3.813  11.308  13.788
   47ETHO   H1335228   3.856  11.211  13.644
   47ETHO    C235229   3.816  11.413  13.600
   47ETHO   H2135230   3.710  11.388  13.578
   47ETHO   H2335231   3.877  11.406  13.507
   48ETHO    O135232   3.830  11.545  13.660
   48ETHO    C135233   3.778  11.642  13.567
   48ETHO   H1135234   3.791  11.614  13.461
   48ETHO   H1335235   3.667  11.633  13.565
   48ETHO    C235236   3.827  11.786  13.589
   48ETHO   H2135237   3.772  11.857  13.523
   48ETHO   H2335238   3.793  11.817  13.690
   49ETHO    O135239   3.967  11.799  13.568
   49ETHO    C135240   4.018  11.774  13.438
   49ETHO   H1135241   3.970  11.840  13.363
   49ETHO   H1335242   4.006  11.671  13.397
   49ETHO    C235243   4.171  11.777  13.432
   49ETHO   H2135244   4.193  11.756  13.325
   49ETHO   H2335245   4.225  11.704  13.496
   50ETHO    O135246   4.214  11.911  13.461
   50ETHO    C135247   4.235  11.933  13.597
   50ETHO   H1135248   4.143  11.951  13.656
   50ETHO   H1335249   4.292  11.855  13.652
   50ETHO    C235250   4.326  12.052  13.613
   50ETHO   H2135251   4.314  12.105  13.711
   50ETHO   H2335252   4.296  12.124  13.535
   51ETHO    O135253   4.454  12.003  13.608
   51ETHO    C135254   4.551  12.103  13.647
   51ETHO   H1135255   4.529  12.125  13.754
   51ETHO   H1335256   4.524  12.191  13.585
   51ETHO    C235257   4.696  12.073  13.622
   51ETHO   H2135258   4.718  11.978  13.674
   51ETHO   H2335259   4.760  12.156  13.658
   52ETHO    O135260   4.736  12.063  13.488
   52ETHO    C135261   4.876  12.041  13.474
   52ETHO   H1135262   4.910  12.137  13.430
   52ETHO   H1335263   4.932  12.004  13.562
   52ETHO    C235264   4.908  11.931  13.362
   52ETHO   H2135265   4.826  11.857  13.370
   52ETHO   H2335266   5.006  11.887  13.391
   53ETHO    O135267   4.926  11.980  13.228
   53ETHO    C135268   4.934  11.871  13.139
   53ETHO   H1135269   4.993  11.786  13.180
   53ETHO   H1335270   4.830  11.839  13.114
   53ETHO    C235271   5.000  11.910  13.003
   53ETHO   H2135272   4.939  11.992  12.961
   53ETHO   H2335273   4.996  11.830  12.927
   54ETHO    O135274   5.136  11.938  13.022
   54ETHO    C135275   5.190  11.981  12.899
   54ETHO   H1135276   5.202  11.894  12.830
   54ETHO   H1335277   5.127  12.058  12.849
   54ETHO    C235278   5.330  12.045  12.923
   54ETHO   H2135279   5.330  12.144  12.975
   54ETHO   H2335280   5.354  12.082  12.821
   55ETHO    O135281   5.433  11.976  12.996
   55ETHO    C135282   5.503  11.885  12.907
   55ETHO   H1135283   5.438  11.800  12.875
   55ETHO   H1335284   5.535  11.938  12.815
   55ETHO    C235285   5.634  11.830  12.968
   55ETHO   H2135286   5.617  11.781  13.066
   55ETHO   H2335287   5.673  11.766  12.885
   56ETHO    O135288   5.715  11.948  12.980
   56ETHO    C135289   5.848  11.908  13.004
   56ETHO   H1135290   5.872  11.821  12.939
   56ETHO   H1335291   5.854  11.863  13.105
   56ETHO    C235292   5.950  12.017  12.975
   56ETHO   H2135293   5.939  12.050  12.869
   56ETHO   H2335294   6.052  11.977  12.989
   57ETHO    O135295   5.931  12.124  13.068
   57ETHO    C135296   6.014  12.230  13.024
   57ETHO   H1135297   6.119  12.230  13.060
   57ETHO   H1335298   6.007  12.250  12.915
   57ETHO    C235299   5.962  12.357  13.091
   57ETHO   H2135300   6.037  12.439  13.085
   57ETHO   H2335301   5.939  12.341  13.199
   58ETHO    O135302   5.844  12.399  13.029
   58ETHO    C135303   5.726  12.384  13.108
   58ETHO   H1135304   5.736  12.436  13.206
   58ETHO   H1335305   5.712  12.275  13.128
   58ETHO    C235306   5.600  12.444  13.039
   58ETHO   H2135307   5.518  12.384  13.084
   58ETHO   H2335308   5.606  12.421  12.930
   59ETHO    O135309   5.581  12.585  13.065
   59ETHO    C135310   5.449  12.621  13.030
   59ETHO   H1135311   5.432  12.730  13.013
   59ETHO   H1335312   5.426  12.572  12.933
   59ETHO    C235313   5.338  12.577  13.130
   59ETHO   H2135314   5.375  12.494  13.194
   59ETHO   H2335315   5.247  12.551  13.071
   60ETHO    O135316   5.304  12.690  13.213
   60ETHO    C135317   5.185  12.669  13.292
   60ETHO   H1135318   5.178  12.567  13.335
   60ETHO   H1335319   5.110  12.671  13.210
   60ETHO    C235320   5.164  12.764  13.421
   60ETHO   H2135321   5.061  12.746  13.460
   60ETHO   H2335322   5.177  12.866  13.380
   61ETHO    O135323   5.253  12.752  13.530
   61ETHO    C135324   5.386  12.786  13.502
   61ETHO   H1135325   5.415  12.729  13.411
   61ETHO   H1335326   5.386  12.892  13.468
   61ETHO    C235327   5.492  12.780  13.611
   61ETHO   H2135328   5.459  12.813  13.711
   61ETHO   H2335329   5.578  12.844  13.582
   62ETHO    O135330   5.544  12.644  13.629
   62ETHO    C135331   5.442  12.557  13.684
   62ETHO   H1135332   5.364  12.617  13.735
   62ETHO   H1335333   5.491  12.493  13.761
   62ETHO    C235334   5.387  12.460  13.572
   62ETHO   H2135335   5.362  12.502  13.472
   62ETHO   H2335336   5.290  12.416  13.602
   63ETHO    O135337   5.483  12.361  13.531
   63ETHO    C135338   5.429  12.234  13.481
   63ETHO   H1135339   5.520  12.170  13.476
   63ETHO   H1335340   5.355  12.198  13.555
   63ETHO    C235341   5.371  12.232  13.340
   63ETHO   H2135342   5.360  12.124  13.314
   63ETHO   H2335343   5.446  12.266  13.266
   64ETHO    O135344   5.243  12.295  13.328
   64ETHO    C135345   5.175  12.253  13.201
   64ETHO   H1135346   5.171  12.142  13.199
   64ETHO   H1335347   5.229  12.298  13.115
   64ETHO    C235348   5.028  12.307  13.202
   64ETHO   H2135349   4.988  12.309  13.306
   64ETHO   H2335350   4.972  12.227  13.149
   65ETHO    O135351   5.030  12.428  13.127
   65ETHO    C135352   4.909  12.509  13.124
   65ETHO   H1135353   4.900  12.568  13.217
   65ETHO   H1335354   4.932  12.581  13.043
   65ETHO    C235355   4.785  12.433  13.088
   65ETHO   H2135356   4.693  12.494  13.084
   65ETHO   H2335357   4.754  12.361  13.166
   66ETHO    O135358   4.807  12.374  12.958
   66ETHO    C135359   4.697  12.301  12.908
   66ETHO   H1135360   4.714  12.276  12.801
   66ETHO   H1335361   4.606  12.366  12.910
   66ETHO    C235362   4.680  12.180  12.994
   66ETHO   H2135363   4.780  12.147  13.030
   66ETHO   H2335364   4.638  12.109  12.920
   67ETHO    O135365   4.593  12.214  13.104
   67ETHO    C135366   4.540  12.092  13.164
   67ETHO   H1135367   4.493  12.024  13.090
   67ETHO   H1335368   4.625  12.034  13.204
   67ETHO    C235369   4.439  12.106  13.275
   67ETHO   H2135370   4.481  12.172  13.354
   67ETHO   H2335371   4.420  12.002  13.310
   68ETHO    O135372   4.314  12.150  13.230
   68ETHO    C135373   4.307  12.290  13.214
   68ETHO   H1135374   4.369  12.339  13.293
   68ETHO   H1335375   4.354  12.319  13.118
   68ETHO    C235376   4.163  12.344  13.193
   68ETHO   H2135377   4.117  12.283  13.113
   68ETHO   H2335378   4.169  12.453  13.173
   69ETHO    O135379   4.084  12.337  13.313
   69ETHO    C135380   4.025  12.213  13.329
   69ETHO   H1135381   3.956  12.197  13.243
   69ETHO   H1335382   4.094  12.129  13.350
   69ETHO    C235383   3.931  12.197  13.445
   69ETHO   H2135384   3.899  12.092  13.461
   69ETHO   H2335385   3.839  12.259  13.433
   70ETHO    O135386   3.979  12.245  13.571
   70ETHO    C135387   3.918  12.180  13.679
   70ETHO   H1135388   3.809  12.196  13.664
   70ETHO   H1335389   3.932  12.070  13.685
   70ETHO    C235390   3.944  12.236  13.819
   70ETHO   H2135391   3.890  12.168  13.889
   70ETHO   H2335392   3.897  12.336  13.825
   71ETHO    O135393   4.078  12.228  13.863
   71ETHO    C135394   4.098  12.286  13.989
   71ETHO   H1135395   4.032  12.231  14.059
   71ETHO   H1335396   4.067  12.392  13.985
   71ETHO    C235397   4.237  12.284  14.046
   71ETHO   H2135398   4.271  12.182  14.072
   71ETHO   H2335399   4.210  12.336  14.140
   72ETHO    O135400   4.338  12.364  13.984
   72ETHO    C135401   4.441  12.388  14.075
   72ETHO   H1135402   4.475  12.491  14.053
   72ETHO   H1335403   4.406  12.392  14.181
   72ETHO    C235404   4.559  12.285  14.053
   72ETHO   H2135405   4.524  12.191  14.007
   72ETHO   H2335406   4.592  12.249  14.153
   73ETHO    O135407   4.660  12.348  13.980
   73ETHO    C135408   4.760  12.256  13.947
   73ETHO   H1135409   4.715  12.199  13.864
   73ETHO   H1335410   4.786  12.185  14.029
   73ETHO    C235411   4.882  12.329  13.899
   73ETHO   H2135412   4.967  12.257  13.906
   73ETHO   H2335413   4.911  12.420  13.956
   74ETHO    O135414   4.878  12.374  13.766
   74ETHO    C135415   5.000  12.430  13.713
   74ETHO   H1135416   5.030  12.522  13.768
   74ETHO   H1335417   5.081  12.354  13.715
   74ETHO    C235418   4.992  12.468  13.567
   74ETHO   H2135419   4.959  12.373  13.519
   74ETHO   H2335420   5.094  12.488  13.528
   75ETHO    O135421   4.896  12.564  13.519
   75ETHO    C135422   4.764  12.504  13.493
   75ETHO   H1135423   4.737  12.441  13.580
   75ETHO   H1335424   4.765  12.424  13.416
   75ETHO    C235425   4.653  12.600  13.461
   75ETHO   H2135426   4.672  12.697  13.511
   75ETHO   H2335427   4.554  12.564  13.496
   76ETHO    O135428   4.664  12.622  13.316
   76ETHO    C135429   4.546  12.682  13.262
   76ETHO   H1135430   4.461  12.611  13.265
   76ETHO   H1335431   4.522  12.753  13.344
   76ETHO    C235432   4.581  12.763  13.136
   76ETHO   H2135433   4.688  12.793  13.137
   76ETHO   H2335434   4.528  12.861  13.131
   77ETHO    O135435   4.566  12.693  13.016
   77ETHO    C135436   4.552  12.780  12.907
   77ETHO   H1135437   4.658  12.795  12.876
   77ETHO   H1335438   4.511  12.879  12.934
   77ETHO    C235439   4.474  12.705  12.805
   77ETHO   H2135440   4.504  12.598  12.795
   77ETHO   H2335441   4.505  12.752  12.710
   78ETHO    O135442   4.328  12.715  12.822
   78ETHO    C135443   4.277  12.666  12.944
   78ETHO   H1135444   4.319  12.564  12.950
   78ETHO   H1335445   4.309  12.732  13.028
   78ETHO    C235446   4.122  12.648  12.946
   78ETHO   H2135447   4.099  12.560  13.008
   78ETHO   H2335448   4.080  12.644  12.843
   79ETHO    O135449   4.053  12.756  13.014
   79ETHO    C135450   3.911  12.733  13.017
   79ETHO   H1135451   3.868  12.706  12.918
   79ETHO   H1335452   3.892  12.645  13.081
   79ETHO    C235453   3.842  12.849  13.072
   79ETHO   H2135454   3.733  12.826  13.073
   79ETHO   H2335455   3.865  12.941  13.013
   80ETHO    O135456   3.873  12.866  13.212
   80ETHO    C135457   3.802  12.972  13.252
   80ETHO   H1135458   3.852  13.058  13.202
   80ETHO   H1335459   3.693  12.960  13.238
   80ETHO    C235460   3.821  12.995  13.409
   80ETHO   H2135461   3.795  12.898  13.456
   80ETHO   H2335462   3.745  13.072  13.434
   81ETHO    O135463   3.943  13.056  13.429
   81ETHO    C135464   4.042  12.959  13.444
   81ETHO   H1135465   4.022  12.894  13.533
   81ETHO   H1335466   4.039  12.889  13.358
   81ETHO    C235467   4.188  13.014  13.472
   81ETHO   H2135468   4.193  13.056  13.574
   81ETHO   H2335469   4.250  12.922  13.481
   82ETHO    O135470   4.223  13.099  13.363
   82ETHO    C135471   4.364  13.130  13.356
   82ETHO   H1135472   4.424  13.049  13.309
   82ETHO   H1335473   4.386  13.145  13.464
   82ETHO    C235474   4.396  13.256  13.281
   82ETHO   H2135475   4.473  13.315  13.334
   82ETHO   H2335476   4.302  13.316  13.276
   83ETHO    O135477   4.436  13.230  13.148
   83ETHO    C135478   4.566  13.169  13.124
   83ETHO   H1135479   4.639  13.233  13.178
   83ETHO   H1335480   4.565  13.073  13.179
   83ETHO    C235481   4.609  13.169  12.978
   83ETHO   H2135482   4.612  13.271  12.935
   83ETHO   H2335483   4.527  13.114  12.928
   84ETHO    O135484   4.743  13.120  12.950
   84ETHO    C135485   4.753  13.100  12.809
   84ETHO   H1135486   4.735  13.196  12.756
   84ETHO   H1335487   4.684  13.022  12.770
   84ETHO    C235488   4.893  13.041  12.776
   84ETHO   H2135489   4.966  13.102  12.833
   84ETHO   H2335490   4.904  13.043  12.666
   85ETHO    O135491   4.905  12.905  12.822
   85ETHO    C135492   5.019  12.831  12.775
   85ETHO   H1135493   5.078  12.881  12.695
   85ETHO   H1335494   5.083  12.808  12.863
   85ETHO    C235495   4.970  12.686  12.738
   85ETHO   H2135496   4.902  12.650  12.818
   85ETHO   H2335497   5.049  12.608  12.728
   86ETHO    O135498   4.880  12.698  12.625
   86ETHO    C135499   4.828  12.573  12.589
   86ETHO   H1135500   4.718  12.577  12.603
   86ETHO   H1335501   4.874  12.494  12.651
   86ETHO    C235502   4.863  12.553  12.440
   86ETHO   H2135503   4.835  12.644  12.385
   86ETHO   H2335504   4.810  12.470  12.388
   87ETHO    O135505   4.995  12.534  12.414
   87ETHO    C135506   5.030  12.502  12.281
   87ETHO   H1135507   5.002  12.395  12.265
   87ETHO   H1335508   4.962  12.557  12.213
   87ETHO    C235509   5.175  12.518  12.227
   87ETHO   H2135510   5.200  12.619  12.266
   87ETHO   H2335511   5.192  12.518  12.117
   88ETHO    O135512   5.251  12.411  12.282
   88ETHO    C135513   5.382  12.412  12.222
   88ETHO   H1135514   5.417  12.516  12.206
   88ETHO   H1335515   5.359  12.360  12.126
   88ETHO    C235516   5.482  12.318  12.296
   88ETHO   H2135517   5.585  12.332  12.257
   88ETHO   H2335518   5.448  12.213  12.287
   89ETHO    O135519   5.479  12.347  12.436
   89ETHO    C135520   5.525  12.235  12.511
   89ETHO   H1135521   5.446  12.177  12.564
   89ETHO   H1335522   5.584  12.164  12.449
   89ETHO    C235523   5.611  12.288  12.631
   89ETHO   H2135524   5.591  12.229  12.723
   89ETHO   H2335525   5.589  12.396  12.647
   90ETHO    O135526   5.752  12.266  12.612
   90ETHO    C135527   5.833  12.325  12.713
   90ETHO   H1135528   5.815  12.433  12.729
   90ETHO   H1335529   5.818  12.274  12.811
   90ETHO    C235530   5.979  12.315  12.661
   90ETHO   H2135531   6.041  12.388  12.718
   90ETHO   H2335532   5.973  12.340  12.553
   91ETHO    O135533   6.032  12.180  12.678
   91ETHO    C135534   6.168  12.173  12.652
   91ETHO   H1135535   6.179  12.191  12.543
   91ETHO   H1335536   6.224  12.257  12.699
   91ETHO    C235537   6.223  12.037  12.689
   91ETHO   H2135538   6.311  12.000  12.632
   91ETHO   H2335539   6.152  11.953  12.679
   92ETHO    O135540   6.259  12.028  12.827
   92ETHO    C135541   6.282  11.889  12.870
   92ETHO   H1135542   6.195  11.820  12.858
   92ETHO   H1335543   6.370  11.854  12.813
   92ETHO    C235544   6.334  11.884  13.010
   92ETHO   H2135545   6.355  11.781  13.045
   92ETHO   H2335546   6.265  11.928  13.086
   93ETHO    O135547   6.441  11.974  13.022
   93ETHO    C135548   6.518  11.961  13.138
   93ETHO   H1135549   6.557  11.858  13.148
   93ETHO   H1335550   6.455  12.000  13.221
   93ETHO    C235551   6.643  12.053  13.125
   93ETHO   H2135552   6.688  12.064  13.227
   93ETHO   H2335553   6.601  12.147  13.084
   94ETHO    O135554   6.727  11.998  13.032
   94ETHO    C135555   6.853  12.070  13.026
   94ETHO   H1135556   6.850  12.140  12.941
   94ETHO   H1335557   6.849  12.136  13.115
   94ETHO    C235558   6.984  11.996  13.048
   94ETHO   H2135559   6.974  11.950  13.149
   94ETHO   H2335560   7.063  12.074  13.050
   95ETHO    O135561   7.010  11.900  12.941
   95ETHO    C135562   6.997  11.956  12.814
   95ETHO   H1135563   7.029  12.062  12.822
   95ETHO   H1335564   6.891  11.957  12.782
   95ETHO    C235565   7.090  11.870  12.726
   95ETHO   H2135566   7.065  11.912  12.627
   95ETHO   H2335567   7.046  11.769  12.738
   96ETHO    O135568   7.231  11.870  12.753
   96ETHO    C135569   7.298  11.783  12.659
   96ETHO   H1135570   7.243  11.686  12.660
   96ETHO   H1335571   7.283  11.831  12.560
   96ETHO    C235572   7.448  11.757  12.679
   96ETHO   H2135573   7.502  11.855  12.675
   96ETHO   H2335574   7.489  11.700  12.593
   97ETHO    O135575   7.477  11.676  12.791
   97ETHO    C135576   7.617  11.649  12.811
   97ETHO   H1135577   7.666  11.658  12.712
   97ETHO   H1335578   7.613  11.547  12.853
   97ETHO    C235579   7.670  11.747  12.914
   97ETHO   H2135580   7.618  11.728  13.011
   97ETHO   H2335581   7.646  11.854  12.892
   98ETHO    O135582   7.812  11.738  12.928
   98ETHO    C135583   7.865  11.819  13.030
   98ETHO   H1135584   7.829  11.924  13.034
   98ETHO   H1335585   7.851  11.760  13.123
   98ETHO    C235586   8.016  11.841  13.020
   98ETHO   H2135587   8.054  11.741  12.990
   98ETHO   H2335588   8.049  11.874  13.121
   99ETHO    O135589   8.051  11.934  12.917
   99ETHO    C135590   8.192  11.926  12.879
   99ETHO   H1135591   8.210  11.824  12.840
   99ETHO   H1335592   8.252  11.941  12.972
   99ETHO    C235593   8.229  12.036  12.784
   99ETHO   H2135594   8.237  12.136  12.832
   99ETHO   H2335595   8.162  12.040  12.695
  100ETHO    O135596   8.366  12.012  12.742
  100ETHO    C135597   8.447  12.125  12.742
  100ETHO   H1135598   8.388  12.219  12.736
  100ETHO   H1335599   8.499  12.138  12.839
  100ETHO    C235600   8.568  12.118  12.642
  100ETHO   H2135601   8.622  12.215  12.638
  100ETHO   H2335602   8.512  12.106  12.546
  101PROX    O135603   8.671  12.020  12.660
  101PROX    C135604   8.757  12.022  12.547
  101PROX   H1135605   8.684  12.022  12.464
  101PROX   H1335606   8.821  12.113  12.545
  101PROX    C235607   8.840  11.896  12.552
  101PROX   H2135608   8.776  11.806  12.563
  101PROX    C335609   8.933  11.913  12.669
  101PROX   H3135610   8.876  11.929  12.763
  101PROX   H3235611   9.001  11.827  12.687
  101PROX   H3335612   9.000  11.999  12.647
  102PROX    O135613   8.914  11.877  12.434
  102PROX    C135614   8.838  11.806  12.334
  102PROX   H1135615   8.847  11.697  12.352
  102PROX   H1335616   8.734  11.843  12.334
  102PROX    C235617   8.890  11.844  12.195
  102PROX   H2135618   8.938  11.943  12.209
  102PROX    C335619   8.789  11.852  12.079
  102PROX   H3135620   8.845  11.880  11.987
  102PROX   H3235621   8.734  11.759  12.056
  102PROX   H3335622   8.713  11.927  12.110
  103PROX    O135623   8.996  11.750  12.161
  103PROX    C135624   9.109  11.757  12.240
  103PROX   H1135625   9.138  11.865  12.234
  103PROX   H1335626   9.090  11.736  12.347
  103PROX    C235627   9.218  11.658  12.195
  103PROX   H2135628   9.195  11.605  12.100
  103PROX    C335629   9.225  11.549  12.305
  103PROX   H3135630   9.133  11.503  12.345
  103PROX   H3235631   9.288  11.462  12.277
  103PROX   H3335632   9.271  11.600  12.392
  104PROX    O135633   9.344  11.726  12.187
  104PROX    C135634   9.361  11.774  12.051
  104PROX   H1135635   9.401  11.686  11.997
  104PROX   H1335636   9.264  11.792  12.001
  104PROX    C235637   9.453  11.899  12.040
  104PROX   H2135638   9.545  11.875  12.097
  104PROX    C335639   9.393  12.016  12.110
  104PROX   H3135640   9.453  12.105  12.082
  104PROX   H3235641   9.290  12.033  12.071
  104PROX   H3335642   9.382  12.009  12.220
  105PROX    O135643   9.484  11.920  11.899
  105PROX    C135644   9.381  11.971  11.813
  105PROX   H1135645   9.276  11.942  11.835
  105PROX   H1335646   9.396  12.080  11.828
  105PROX    C235647   9.409  11.917  11.671
  105PROX   H2135648   9.429  11.808  11.677
  105PROX    C335649   9.539  11.976  11.613
  105PROX   H3135650   9.595  11.897  11.558
  105PROX   H3235651   9.510  12.052  11.537
  105PROX   H3335652   9.610  12.019  11.688
  106PROX    O135653   9.293  11.932  11.585
  106PROX    C135654   9.178  11.850  11.625
  106PROX   H1135655   9.209  11.749  11.660
  106PROX   H1335656   9.116  11.893  11.707
  106PROX    C235657   9.082  11.836  11.501
  106PROX   H2135658   8.987  11.801  11.547
  106PROX    C335659   9.136  11.740  11.399
  106PROX   H3135660   9.069  11.744  11.310
  106PROX   H3235661   9.241  11.760  11.370
  106PROX   H3335662   9.130  11.634  11.432
  107PROX    O135663   9.057  11.969  11.447
  107PROX    C135664   8.921  12.002  11.426
  107PROX   H1135665   8.921  12.104  11.380
  107PROX   H1335666   8.875  11.931  11.355
  107PROX    C235667   8.847  12.023  11.559
  107PROX   H2135668   8.857  11.935  11.626
  107PROX    C335669   8.694  12.045  11.540
  107PROX   H3135670   8.673  12.140  11.487
  107PROX   H3235671   8.644  11.974  11.471
  107PROX   H3335672   8.644  12.036  11.639
  108PROX    O135673   8.910  12.141  11.617
  108PROX    C135674   8.886  12.154  11.755
  108PROX   H1135675   8.786  12.203  11.763
  108PROX   H1335676   8.887  12.050  11.794
  108PROX    C235677   8.985  12.245  11.818
  108PROX   H2135678   8.987  12.349  11.779
  108PROX    C335679   9.121  12.183  11.797
  108PROX   H3135680   9.154  12.164  11.692
  108PROX   H3235681   9.201  12.242  11.848
  108PROX   H3335682   9.125  12.083  11.845
  109PROX    O135683   8.967  12.249  11.960
  109PROX    C135684   8.855  12.313  12.000
  109PROX   H1135685   8.861  12.409  11.944
  109PROX   H1335686   8.759  12.262  11.976
  109PROX    C235687   8.843  12.336  12.153
  109PROX   H2135688   8.934  12.393  12.182
  109PROX    C335689   8.836  12.210  12.242
  109PROX   H3135690   8.823  12.240  12.348
  109PROX   H3235691   8.759  12.136  12.212
  109PROX   H3335692   8.936  12.161  12.234
  110PROX    O135693   8.726  12.413  12.190
  110PROX    C135694   8.758  12.548  12.220
  110PROX   H1135695   8.829  12.589  12.145
  110PROX   H1335696   8.665  12.604  12.194
  110PROX    C235697   8.798  12.577  12.359
  110PROX   H2135698   8.853  12.496  12.410
  110PROX    C335699   8.692  12.627  12.449
  110PROX   H3135700   8.642  12.542  12.500
  110PROX   H3235701   8.734  12.681  12.536
  110PROX   H3335702   8.618  12.688  12.393
  111PROX    O135703   8.884  12.690  12.344
  111PROX    C135704   9.019  12.653  12.357
  111PROX   H1135705   9.041  12.660  12.466
  111PROX   H1335706   9.040  12.551  12.320
  111PROX    C235707   9.118  12.754  12.294
  111PROX   H2135708   9.089  12.854  12.331
  111PROX    C335709   9.096  12.750  12.142
  111PROX   H3135710   8.988  12.769  12.124
  111PROX   H3235711   9.135  12.843  12.096
  111PROX   H3335712   9.139  12.655  12.104
  112PROX    O135713   9.251  12.724  12.330
  112PROX    C135714   9.349  12.813  12.270
  112PROX   H1135715   9.353  12.787  12.162
  112PROX   H1335716   9.310  12.916  12.281
  112PROX    C235717   9.489  12.795  12.327
  112PROX   H2135718   9.508  12.686  12.320
  112PROX    C335719   9.501  12.830  12.478
  112PROX   H3135720   9.473  12.935  12.500
  112PROX   H3235721   9.423  12.774  12.533
  112PROX   H3335722   9.604  12.813  12.517
  113PROX    O135723   9.582  12.864  12.250
  113PROX    C135724   9.710  12.800  12.257
  113PROX   H1135725   9.760  12.813  12.355
  113PROX   H1335726   9.700  12.690  12.243
  113PROX    C235727   9.803  12.864  12.151
  113PROX   H2135728   9.817  12.972  12.174
  113PROX    C335729   9.737  12.853  12.005
  113PROX   H3135730   9.631  12.888  12.011
  113PROX   H3235731   9.780  12.925  11.931
  113PROX   H3335732   9.735  12.747  11.972
  114PROX    O135733   9.932  12.794  12.159
  114PROX    C135734  10.035  12.848  12.076
  114PROX   H1135735  10.026  12.801  11.976
  114PROX   H1335736  10.021  12.957  12.061
  114PROX    C235737  10.175  12.818  12.138
  114PROX   H2135738  10.200  12.710  12.152
  114PROX    C335739  10.205  12.892  12.266
  114PROX   H3135740  10.221  13.002  12.256
  114PROX   H3235741  10.127  12.871  12.342
  114PROX   H3335742  10.296  12.853  12.316
  115PROX    O135743  10.277  12.868  12.053
  115PROX    C135744  10.293  12.797  11.928
  115PROX   H1135745  10.333  12.696  11.953
  115PROX   H1335746  10.201  12.789  11.866
  115PROX    C235747  10.396  12.872  11.844
  115PROX   H2135748  10.480  12.910  11.906
  115PROX    C335749  10.325  12.987  11.774
  115PROX   H3135750  10.229  12.960  11.725
  115PROX   H3235751  10.311  13.049  11.866
  115PROX   H3335752  10.384  13.043  11.698
  116PROX    O135753  10.452  12.779  11.745
  116PROX    C135754  10.593  12.809  11.702
  116PROX   H1135755  10.600  12.916  11.673
  116PROX   H1335756  10.666  12.789  11.784
  116PROX    C235757  10.630  12.721  11.585
  116PROX   H2135758  10.595  12.623  11.624
  116PROX    C335759  10.776  12.725  11.540
  116PROX   H3135760  10.793  12.626  11.493
  116PROX   H3235761  10.798  12.813  11.476
  116PROX   H3335762  10.839  12.742  11.630
  117PROX    O135763  10.538  12.757  11.477
  117PROX    C135764  10.506  12.645  11.397
  117PROX   H1135765  10.573  12.646  11.309
  117PROX   H1335766  10.521  12.543  11.439
  117PROX    C235767  10.367  12.655  11.337
  117PROX   H2135768  10.372  12.584  11.251
  117PROX    C335769  10.331  12.805  11.299
  117PROX   H3135770  10.238  12.830  11.243
  117PROX   H3235771  10.326  12.860  11.395
  117PROX   H3335772  10.410  12.849  11.235
  118PROX    O135773  10.264  12.611  11.421
  118PROX    C135774  10.258  12.655  11.557
  118PROX   H1135775  10.332  12.598  11.618
  118PROX   H1335776  10.295  12.759  11.570
  118PROX    C235777  10.108  12.657  11.596
  118PROX   H2135778  10.065  12.569  11.542
  118PROX    C335779  10.039  12.783  11.545
  118PROX   H3135780   9.936  12.805  11.579
  118PROX   H3235781  10.107  12.866  11.574
  118PROX   H3335782  10.026  12.779  11.435
  119PROX    O135783  10.097  12.644  11.739
  119PROX    C135784  10.116  12.506  11.778
  119PROX   H1135785  10.060  12.440  11.708
  119PROX   H1335786  10.220  12.474  11.755
  119PROX    C235787  10.088  12.471  11.929
  119PROX   H2135788  10.077  12.565  11.986
  119PROX    C335789  10.192  12.371  11.987
  119PROX   H3135790  10.177  12.367  12.097
  119PROX   H3235791  10.189  12.278  11.927
  119PROX   H3335792  10.289  12.419  11.962
  120PROX    O135793   9.971  12.394  11.932
  120PROX    C135794   9.852  12.469  11.903
  120PROX   H1135795   9.844  12.534  11.993
  120PROX   H1335796   9.849  12.528  11.809
  120PROX    C235797   9.737  12.373  11.897
  120PROX   H2135798   9.735  12.302  11.982
  120PROX    C335799   9.732  12.294  11.763
  120PROX   H3135800   9.637  12.237  11.760
  120PROX   H3235801   9.735  12.372  11.684
  120PROX   H3335802   9.813  12.217  11.754
  121PROX    O135803   9.621  12.454  11.918
  121PROX    C135804   9.499  12.383  11.955
  121PROX   H1135805   9.446  12.340  11.867
  121PROX   H1335806   9.530  12.290  12.009
  121PROX    C235807   9.401  12.465  12.036
  121PROX   H2135808   9.466  12.536  12.093
  121PROX    C335809   9.303  12.396  12.127
  121PROX   H3135810   9.358  12.358  12.216
  121PROX   H3235811   9.233  12.471  12.170
  121PROX   H3335812   9.262  12.306  12.077
  122PROX    O135813   9.316  12.543  11.953
  122PROX    C135814   9.385  12.628  11.868
  122PROX   H1135815   9.459  12.684  11.929
  122PROX   H1335816   9.447  12.576  11.791
  122PROX    C235817   9.285  12.710  11.793
  122PROX   H2135818   9.217  12.750  11.871
  122PROX    C335819   9.202  12.626  11.694
  122PROX   H3135820   9.122  12.684  11.643
  122PROX   H3235821   9.272  12.575  11.624
  122PROX   H3335822   9.136  12.550  11.741
  123PROX    O135823   9.350  12.799  11.703
  123PROX    C135824   9.398  12.917  11.764
  123PROX   H1135825   9.315  12.980  11.803
  123PROX   H1335826   9.457  12.900  11.857
  123PROX    C235827   9.489  13.001  11.673
  123PROX   H2135828   9.440  13.033  11.578
  123PROX    C335829   9.618  12.916  11.644
  123PROX   H3135830   9.605  12.853  11.553
  123PROX   H3235831   9.714  12.969  11.623
  123PROX   H3335832   9.647  12.843  11.722
  124PROX    O135833   9.540  13.110  11.746
  124PROX    C135834   9.498  13.235  11.698
  124PROX   H1135835   9.546  13.265  11.602
  124PROX   H1335836   9.389  13.232  11.678
  124PROX    C235837   9.541  13.346  11.794
  124PROX   H2135838   9.487  13.326  11.889
  124PROX    C335839   9.476  13.481  11.747
  124PROX   H3135840   9.485  13.482  11.636
  124PROX   H3235841   9.370  13.481  11.778
  124PROX   H3335842   9.526  13.572  11.786
  125PROX    O135843   9.680  13.350  11.805
  125PROX    C135844   9.725  13.287  11.927
  125PROX   H1135845   9.711  13.363  12.006
  125PROX   H1335846   9.666  13.196  11.951
  125PROX    C235847   9.875  13.255  11.910
  125PROX   H2135848   9.931  13.345  11.879
  125PROX    C335849   9.912  13.147  11.797
  125PROX   H3135850   9.875  13.048  11.833
  125PROX   H3235851   9.862  13.177  11.702
  125PROX   H3335852  10.021  13.132  11.781
  126PROX    O135853   9.923  13.214  12.037
  126PROX    C135854  10.060  13.249  12.070
  126PROX   H1135855  10.095  13.175  12.146
  126PROX   H1335856  10.126  13.237  11.982
  126PROX    C235857  10.074  13.390  12.131
  126PROX   H2135858   9.980  13.449  12.134
  126PROX    C335859  10.184  13.469  12.048
  126PROX   H3135860  10.179  13.576  12.078
  126PROX   H3235861  10.286  13.432  12.070
  126PROX   H3335862  10.161  13.470  11.940
  127PROX    O135863  10.118  13.366  12.267
  127PROX    C135864  10.134  13.494  12.339
  127PROX   H1135865  10.222  13.552  12.302
  127PROX   H1335866  10.042  13.556  12.331
  127PROX    C235867  10.143  13.469  12.500
  127PROX   H2135868  10.097  13.370  12.521
  127PROX    C335869  10.100  13.585  12.582
  127PROX   H3135870  10.103  13.556  12.690
  127PROX   H3235871  10.174  13.667  12.570
  127PROX   H3335872   9.997  13.625  12.566
  128PROX    O135873  10.273  13.450  12.528
  128PROX    C135874  10.335  13.344  12.449
  128PROX   H1135875  10.270  13.255  12.448
  128PROX   H1335876  10.353  13.380  12.345
  128PROX    C235877  10.469  13.291  12.499
  128PROX   H2135878  10.463  13.256  12.604
  128PROX    C335879  10.577  13.401  12.488
  128PROX   H3135880  10.575  13.453  12.390
  128PROX   H3235881  10.556  13.483  12.560
  128PROX   H3335882  10.677  13.362  12.514
  129PROX    O135883  10.501  13.174  12.428
  129PROX    C135884  10.621  13.111  12.468
  129PROX   H1135885  10.709  13.165  12.427
  129PROX   H1335886  10.631  13.100  12.579
  129PROX    C235887  10.621  12.971  12.398
  129PROX   H2135888  10.517  12.934  12.391
  129PROX    C335889  10.698  12.865  12.477
  129PROX   H3135890  10.808  12.881  12.472
  129PROX   H3235891  10.665  12.855  12.583
  129PROX   H3335892  10.670  12.763  12.441
  130PROX    O135893  10.684  12.976  12.272
  130PROX    C135894  10.591  13.026  12.166
  130PROX   H1135895  10.597  12.964  12.074
  130PROX   H1335896  10.489  13.002  12.201
  130PROX    C235897  10.604  13.172  12.122
  130PROX   H2135898  10.610  13.240  12.210
  130PROX    C335899  10.486  13.218  12.031
  130PROX   H3135900  10.474  13.155  11.941
  130PROX   H3235901  10.395  13.211  12.095
  130PROX   H3335902  10.497  13.322  11.993
  131PROX    O135903  10.724  13.193  12.042
  131PROX    C135904  10.832  13.213  12.127
  131PROX   H1135905  10.833  13.318  12.164
  131PROX   H1335906  10.843  13.145  12.214
  131PROX    C235907  10.969  13.198  12.058
  131PROX   H2135908  11.036  13.269  12.110
  131PROX    C335909  10.970  13.242  11.911
  131PROX   H3135910  10.901  13.175  11.855
  131PROX   H3235911  10.942  13.349  11.902
  131PROX   H3335912  11.073  13.230  11.873
  132PROX    O135913  11.019  13.062  12.070
  132PROX    C135914  10.947  12.964  12.001
  132PROX   H1135915  10.845  12.951  12.043
  132PROX   H1335916  10.941  12.983  11.892
  132PROX    C235917  11.013  12.822  11.997
  132PROX   H2135918  11.054  12.807  12.099
  132PROX    C335919  11.134  12.820  11.904
  132PROX   H3135920  11.192  12.725  11.908
  132PROX   H3235921  11.105  12.861  11.805
  132PROX   H3335922  11.217  12.888  11.933
  133PROX    O135923  10.913  12.732  11.956
  133PROX    C135924  10.858  12.662  12.069
  133PROX   H1135925  10.920  12.576  12.100
  133PROX   H1335926  10.835  12.729  12.154
  133PROX    C235927  10.715  12.619  12.028
  133PROX   H2135928  10.661  12.708  11.988
  133PROX    C335929  10.639  12.587  12.159
  133PROX   H3135930  10.532  12.560  12.149
  133PROX   H3235931  10.681  12.497  12.210
  133PROX   H3335932  10.643  12.664  12.239
  134PROX    O135933  10.730  12.510  11.939
  134PROX    C135934  10.603  12.470  11.891
  134PROX   H1135935  10.532  12.438  11.970
  134PROX   H1335936  10.570  12.560  11.835
  134PROX    C235937  10.628  12.347  11.801
  134PROX   H2135938  10.694  12.386  11.721
  134PROX    C335939  10.499  12.301  11.727
  134PROX   H3135940  10.427  12.257  11.799
  134PROX   H3235941  10.446  12.389  11.685
  134PROX   H3335942  10.522  12.233  11.642
  135PROX    O135943  10.698  12.240  11.864
  135PROX    C135944  10.641  12.192  11.982
  135PROX   H1135945  10.614  12.267  12.059
  135PROX   H1335946  10.548  12.139  11.950
  135PROX    C235947  10.754  12.108  12.054
  135PROX   H2135948  10.840  12.177  12.067
  135PROX    C335949  10.791  11.986  11.968
  135PROX   H3135950  10.706  11.914  11.969
  135PROX   H3235951  10.804  12.017  11.862
  135PROX   H3335952  10.888  11.948  12.007
  136PROX    O135953  10.714  12.069  12.187
  136PROX    C135954  10.734  12.181  12.279
  136PROX   H1135955  10.843  12.179  12.301
  136PROX   H1335956  10.709  12.279  12.233
  136PROX    C235957  10.655  12.154  12.407
  136PROX   H2135958  10.687  12.060  12.455
  136PROX    C335959  10.503  12.152  12.364
  136PROX   H3135960  10.488  12.076  12.283
  136PROX   H3235961  10.439  12.128  12.451
  136PROX   H3335962  10.467  12.245  12.315
  137PROX    O135963  10.672  12.256  12.498
  137PROX    C135964  10.615  12.226  12.623
  137PROX   H1135965  10.535  12.149  12.624
  137PROX   H1335966  10.701  12.178  12.675
  137PROX    C235967  10.571  12.352  12.691
  137PROX   H2135968  10.654  12.426  12.694
  137PROX    C335969  10.519  12.318  12.829
  137PROX   H3135970  10.609  12.311  12.894
  137PROX   H3235971  10.449  12.397  12.863
  137PROX   H3335972  10.454  12.229  12.836
  138PROX    O135973  10.461  12.404  12.620
  138PROX    C135974  10.458  12.548  12.622
  138PROX   H1135975  10.464  12.581  12.728
  138PROX   H1335976  10.551  12.579  12.569
  138PROX    C235977  10.346  12.592  12.533
  138PROX   H2135978  10.256  12.531  12.557
  138PROX    C335979  10.369  12.566  12.390
  138PROX   H3135980  10.280  12.568  12.325
  138PROX   H3235981  10.440  12.643  12.353
  138PROX   H3335982  10.402  12.461  12.377
  139PROX    O135983  10.333  12.734  12.552
  139PROX    C135984  10.247  12.761  12.661
  139PROX   H1135985  10.156  12.700  12.643
  139PROX   H1335986  10.302  12.735  12.754
  139PROX    C235987  10.198  12.910  12.676
  139PROX   H2135988  10.121  12.930  12.598
  139PROX    C335989  10.311  13.014  12.656
  139PROX   H3135990  10.271  13.117  12.665
  139PROX   H3235991  10.392  13.001  12.731
  139PROX   H3335992  10.357  12.990  12.557
  140PROX    O135993  10.145  12.946  12.802
  140PROX    C135994  10.040  12.864  12.838
  140PROX   H1135995  10.066  12.755  12.836
  140PROX   H1335996  10.014  12.896  12.942
  140PROX    C235997   9.905  12.886  12.747
  140PROX   H2135998   9.823  12.877  12.821
  140PROX    C335999   9.883  12.779  12.635
  140PROX   H3136000   9.957  12.784  12.552
  140PROX   H3236001   9.885  12.672  12.667
  140PROX   H3336002   9.782  12.787  12.591
  141PROX    O136003   9.907  13.016  12.686
  141PROX    C136004   9.774  13.069  12.653
  141PROX   H1136005   9.700  12.996  12.693
  141PROX   H1336006   9.769  13.168  12.703
  141PROX    C236007   9.751  13.094  12.498
  141PROX   H2136008   9.750  12.993  12.453
  141PROX    C336009   9.861  13.184  12.444
  141PROX   H3136010   9.955  13.125  12.451
  141PROX   H3236011   9.853  13.203  12.335
  141PROX   H3336012   9.855  13.274  12.509
  142PROX    O136013   9.620  13.154  12.487
  142PROX    C136014   9.592  13.191  12.353
  142PROX   H1136015   9.620  13.297  12.332
  142PROX   H1336016   9.645  13.126  12.280
  142PROX    C236017   9.436  13.187  12.310
  142PROX   H2136018   9.397  13.090  12.347
  142PROX    C336019   9.431  13.212  12.159
  142PROX   H3136020   9.439  13.122  12.095
  142PROX   H3236021   9.330  13.253  12.138
  142PROX   H3336022   9.507  13.287  12.128
  143PROX    O136023   9.371  13.297  12.371
  143PROX    C136024   9.317  13.264  12.500
  143PROX   H1136025   9.388  13.212  12.568
  143PROX   H1336026   9.299  13.361  12.551
  143PROX    C236027   9.181  13.197  12.483
  143PROX   H2136028   9.194  13.126  12.398
  143PROX    C336029   9.070  13.297  12.436
  143PROX   H3136030   9.108  13.360  12.352
  143PROX   H3236031   8.983  13.232  12.414
  143PROX   H3336032   9.054  13.361  12.526
  144PROX    O136033   9.148  13.125  12.603
  144PROX    C136034   9.222  12.999  12.609
  144PROX   H1136035   9.220  12.941  12.514
  144PROX   H1336036   9.330  13.024  12.623
  144PROX    C236037   9.178  12.914  12.723
  144PROX   H2136038   9.223  12.816  12.694
  144PROX    C336039   9.025  12.893  12.748
  144PROX   H3136040   8.978  12.847  12.658
  144PROX   H3236041   9.015  12.816  12.826
  144PROX   H3336042   8.971  12.989  12.768
  145PROX    O136043   9.236  12.962  12.842
  145PROX    C136044   9.379  12.955  12.850
  145PROX   H1136045   9.424  12.859  12.817
  145PROX   H1336046   9.416  13.047  12.801
  145PROX    C236047   9.420  12.974  12.993
  145PROX   H2136048   9.360  12.901  13.052
  145PROX    C336049   9.384  13.121  13.044
  145PROX   H3136050   9.415  13.127  13.151
  145PROX   H3236051   9.450  13.193  12.993
  145PROX   H3336052   9.275  13.144  13.042
  146PROX    O136053   9.559  12.947  12.997
  146PROX    C136054   9.596  12.864  13.113
  146PROX   H1136055   9.693  12.900  13.153
  146PROX   H1336056   9.529  12.891  13.197
  146PROX    C236057   9.601  12.711  13.087
  146PROX   H2136058   9.636  12.660  13.179
  146PROX    C336059   9.699  12.685  12.971
  146PROX   H3136060   9.796  12.733  12.996
  146PROX   H3236061   9.708  12.575  12.969
  146PROX   H3336062   9.666  12.728  12.873
  147PROX    O136063   9.482  12.660  13.039
  147PROX    C136064   9.389  12.591  13.133
  147PROX   H1136065   9.446  12.540  13.213
  147PROX   H1336066   9.325  12.667  13.182
  147PROX    C236067   9.298  12.515  13.036
  147PROX   H2136068   9.368  12.455  12.974
  147PROX    C336069   9.215  12.616  12.945
  147PROX   H3136070   9.145  12.567  12.874
  147PROX   H3236071   9.142  12.674  13.006
  147PROX   H3336072   9.284  12.682  12.889
  148PROX    O136073   9.202  12.435  13.102
  148PROX    C136074   9.252  12.337  13.183
  148PROX   H1136075   9.301  12.383  13.271
  148PROX   H1336076   9.166  12.283  13.229
  148PROX    C236077   9.343  12.230  13.120
  148PROX   H2136078   9.429  12.294  13.092
  148PROX    C336079   9.262  12.168  12.996
  148PROX   H3136080   9.176  12.100  13.014
  148PROX   H3236081   9.210  12.246  12.936
  148PROX   H3336082   9.338  12.116  12.935
  149PROX    O136083   9.363  12.129  13.215
  149PROX    C136084   9.485  12.054  13.198
  149PROX   H1136085   9.478  11.984  13.113
  149PROX   H1336086   9.572  12.122  13.180
  149PROX    C236087   9.513  11.963  13.322
  149PROX   H2136088   9.434  11.886  13.330
  149PROX    C336089   9.522  12.037  13.455
  149PROX   H3136090   9.465  12.131  13.470
  149PROX   H3236091   9.494  11.977  13.544
  149PROX   H3336092   9.630  12.054  13.470
  150PROX    O136093   9.641  11.897  13.315
  150PROX    C136094   9.639  11.800  13.211
  150PROX   H1136095   9.667  11.703  13.258
  150PROX   H1336096   9.536  11.776  13.178
  150PROX    C236097   9.721  11.833  13.077
  150PROX   H2136098   9.681  11.922  13.025
  150PROX    C336099   9.731  11.707  12.995
  150PROX   H3136100   9.632  11.657  12.993
  150PROX   H3236101   9.767  11.705  12.890
  150PROX   H3336102   9.788  11.628  13.051
  151PROX    O136103   9.857  11.864  13.114
  151PROX    C136104   9.932  11.905  13.002
  151PROX   H1136105   9.921  11.842  12.911
  151PROX   H1336106   9.902  12.009  12.974
  151PROX    C236107  10.083  11.922  13.034
  151PROX   H2136108  10.111  11.825  13.080
  151PROX    C336109  10.108  12.056  13.110
  151PROX   H3136110  10.214  12.061  13.142
  151PROX   H3236111  10.094  12.139  13.038
  151PROX   H3336112  10.031  12.074  13.188
  152PROX    O136113  10.156  11.937  12.917
  152PROX    C136114  10.282  11.889  12.931
  152PROX   H1136115  10.343  11.955  12.997
  152PROX   H1336116  10.299  11.786  12.971
  152PROX    C236117  10.354  11.882  12.795
  152PROX   H2136118  10.359  11.991  12.774
  152PROX    C336119  10.263  11.803  12.699
  152PROX   H3136120  10.259  11.696  12.728
  152PROX   H3236121  10.164  11.848  12.675
  152PROX   H3336122  10.310  11.790  12.600
  153PROX    O136123  10.483  11.829  12.813
  153PROX    C136124  10.568  11.842  12.703
  153PROX   H1136125  10.525  11.882  12.609
  153PROX   H1336126  10.625  11.932  12.733
  153PROX    C236127  10.656  11.717  12.682
  153PROX   H2136128  10.701  11.700  12.782
  153PROX    C336129  10.774  11.748  12.590
  153PROX   H3136130  10.820  11.847  12.611
  153PROX   H3236131  10.850  11.668  12.593
  153PROX   H3336132  10.728  11.770  12.491
  154PROX    O136133  10.574  11.604  12.644
  154PROX    C136134  10.548  11.595  12.505
  154PROX   H1136135  10.537  11.693  12.453
  154PROX   H1336136  10.641  11.542  12.473
  154PROX    C236137  10.427  11.498  12.475
  154PROX   H2136138  10.447  11.408  12.536
  154PROX    C336139  10.428  11.459  12.322
  154PROX   H3136140  10.410  11.544  12.252
  154PROX   H3236141  10.528  11.421  12.293
  154PROX   H3336142  10.347  11.389  12.290
  155PROX    O136143  10.301  11.560  12.514
  155PROX    C136144  10.196  11.455  12.501
  155PROX   H1136145  10.156  11.449  12.398
  155PROX   H1336146  10.240  11.356  12.524
  155PROX    C236147  10.071  11.470  12.598
  155PROX   H2136148  10.108  11.480  12.702
  155PROX    C336149   9.982  11.344  12.577
  155PROX   H3136150   9.899  11.346  12.651
  155PROX   H3236151   9.957  11.326  12.470
  155PROX   H3336152  10.055  11.266  12.609
  156PROX    O136153   9.995  11.586  12.559
  156PROX    C136154   9.887  11.615  12.648
  156PROX   H1136155   9.813  11.533  12.638
  156PROX   H1336156   9.913  11.643  12.753
  156PROX    C236157   9.813  11.730  12.582
  156PROX   H2136158   9.782  11.684  12.486
  156PROX    C336159   9.903  11.851  12.556
  156PROX   H3136160   9.987  11.824  12.489
  156PROX   H3236161   9.858  11.947  12.524
  156PROX   H3336162   9.934  11.880  12.658
  157PROX    O136163   9.703  11.773  12.662
  157PROX    C136164   9.599  11.810  12.574
  157PROX   H1136165   9.619  11.911  12.532
  157PROX   H1336166   9.580  11.731  12.498
  157PROX    C236167   9.464  11.821  12.657
  157PROX   H2136168   9.476  11.750  12.741
  157PROX    C336169   9.341  11.781  12.581
  157PROX   H3136170   9.329  11.811  12.474
  157PROX   H3236171   9.335  11.671  12.594
  157PROX   H3336172   9.251  11.807  12.641
  158PROX    O136173   9.451  11.956  12.707
  158PROX    C136174   9.533  11.988  12.820
  158PROX   H1136175   9.482  11.969  12.917
  158PROX   H1336176   9.617  11.915  12.828
  158PROX    C236177   9.589  12.136  12.812
  158PROX   H2136178   9.508  12.199  12.769
  158PROX    C336179   9.717  12.127  12.729
  158PROX   H3136180   9.804  12.079  12.778
  158PROX   H3236181   9.687  12.077  12.634
  158PROX   H3336182   9.744  12.232  12.703
  159PROX    O136183   9.613  12.184  12.942
  159PROX    C136184   9.682  12.309  12.932
  159PROX   H1136185   9.668  12.353  12.831
  159PROX   H1336186   9.644  12.382  13.006
  159PROX    C236187   9.831  12.298  12.970
  159PROX   H2136188   9.872  12.206  12.923
  159PROX    C336189   9.836  12.275  13.120
  159PROX   H3136190   9.943  12.281  13.150
  159PROX   H3236191   9.772  12.348  13.175
  159PROX   H3336192   9.791  12.180  13.154
  160PROX    O136193   9.899  12.419  12.942
  160PROX    C136194   9.934  12.452  12.807
  160PROX   H1136195   9.844  12.447  12.742
  160PROX   H1336196   9.981  12.552  12.805
  160PROX    C236197  10.044  12.353  12.749
  160PROX   H2136198  10.010  12.247  12.746
  160PROX    C336199  10.171  12.370  12.844
  160PROX   H3136200  10.239  12.284  12.821
  160PROX   H3236201  10.231  12.461  12.825
  160PROX   H3336202  10.142  12.344  12.948
  161PROX    O136203  10.078  12.388  12.620
  161PROX    C136204  10.153  12.281  12.552
  161PROX   H1136205  10.216  12.326  12.472
  161PROX   H1336206  10.212  12.224  12.627
  161PROX    C236207  10.068  12.177  12.488
  161PROX   H2136208  10.001  12.144  12.570
  161PROX    C336209  10.150  12.050  12.437
  161PROX   H3136210  10.078  11.972  12.402
  161PROX   H3236211  10.211  12.076  12.348
  161PROX   H3336212  10.215  12.018  12.521
  162PROX    O136213   9.997  12.231  12.377
  162PROX    C136214   9.864  12.271  12.413
  162PROX   H1136215   9.797  12.183  12.421
  162PROX   H1336216   9.877  12.325  12.509
  162PROX    C236217   9.800  12.379  12.317
  162PROX   H2136218   9.764  12.316  12.233
  162PROX    C336219   9.902  12.467  12.265
  162PROX   H3136220   9.974  12.502  12.341
  162PROX   H3236221   9.957  12.407  12.190
  162PROX   H3336222   9.848  12.547  12.208
  163PROX    O136223   9.696  12.449  12.395
  163PROX    C136224   9.583  12.365  12.420
  163PROX   H1136225   9.539  12.346  12.319
  163PROX   H1336226   9.605  12.273  12.477
  163PROX    C236227   9.473  12.445  12.502
  163PROX   H2136228   9.452  12.536  12.441
  163PROX    C336229   9.516  12.496  12.638
  163PROX   H3136230   9.583  12.585  12.633
  163PROX   H3236231   9.431  12.518  12.705
  163PROX   H3336232   9.569  12.406  12.677
  164PROX    O136233   9.357  12.364  12.514
  164PROX    C136234   9.240  12.438  12.554
  164PROX   H1136235   9.255  12.506  12.640
  164PROX   H1336236   9.196  12.491  12.466
  164PROX    C236237   9.130  12.343  12.599
  164PROX   H2136238   9.189  12.284  12.672
  164PROX    C336239   9.091  12.253  12.487
  164PROX   H3136240   9.038  12.319  12.415
  164PROX   H3236241   9.181  12.208  12.441
  164PROX   H3336242   9.016  12.180  12.526
  165PROX    O136243   9.016  12.411  12.650
  165PROX    C136244   8.973  12.357  12.776
  165PROX   H1136245   8.952  12.254  12.740
  165PROX   H1336246   9.054  12.364  12.852
  165PROX    C236247   8.850  12.429  12.827
  165PROX   H2136248   8.765  12.417  12.757
  165PROX    C336249   8.876  12.578  12.832
  165PROX   H3136250   8.948  12.601  12.914
  165PROX   H3236251   8.909  12.629  12.739
  165PROX   H3336252   8.782  12.628  12.866
  166ETHO    O136253   8.819  12.377  12.948
  166ETHO    C136254   8.683  12.394  12.989
  166ETHO   H1136255   8.602  12.394  12.912
  166ETHO   H1336256   8.679  12.490  13.046
  166ETHO    C236257   8.642  12.298  13.097
  166ETHO   H2136258   8.538  12.313  13.132
  166ETHO   H2336259   8.715  12.310  13.181
  167ETHO    O136260   8.652  12.163  13.041
  167ETHO    C136261   8.617  12.073  13.141
  167ETHO   H1136262   8.702  12.071  13.213
  167ETHO   H1336263   8.529  12.111  13.198
  167ETHO    C236264   8.587  11.939  13.067
  167ETHO   H2136265   8.686  11.899  13.039
  167ETHO   H2336266   8.524  11.953  12.977
  168ETHO    O136267   8.521  11.849  13.150
  168ETHO    C136268   8.451  11.751  13.069
  168ETHO   H1136269   8.527  11.705  13.002
  168ETHO   H1336270   8.379  11.794  12.997
  168ETHO    C236271   8.375  11.643  13.155
  168ETHO   H2136272   8.430  11.631  13.250
  168ETHO   H2336273   8.382  11.544  13.105
  169ETHO    O136274   8.247  11.687  13.183
  169ETHO    C136275   8.164  11.585  13.245
  169ETHO   H1136276   8.059  11.609  13.219
  169ETHO   H1336277   8.186  11.485  13.201
  169ETHO    C236278   8.177  11.582  13.400
  169ETHO   H2136279   8.101  11.513  13.444
  169ETHO   H2336280   8.147  11.685  13.431
  170ETHO    O136281   8.305  11.540  13.446
  170ETHO    C136282   8.364  11.643  13.523
  170ETHO   H1136283   8.344  11.744  13.481
  170ETHO   H1336284   8.474  11.625  13.531
  170ETHO    C236285   8.310  11.629  13.669
  170ETHO   H2136286   8.199  11.619  13.669
  170ETHO   H2336287   8.338  11.730  13.704
  171ETHO    O136288   8.366  11.530  13.751
  171ETHO    C136289   8.322  11.544  13.886
  171ETHO   H1136290   8.356  11.640  13.930
  171ETHO   H1336291   8.212  11.532  13.890
  171ETHO    C236292   8.379  11.437  13.980
  171ETHO   H2136293   8.370  11.474  14.085
  171ETHO   H2336294   8.487  11.419  13.967
  172ETHO    O136295   8.305  11.313  13.948
  172ETHO    C136296   8.308  11.217  14.050
  172ETHO   H1136297   8.276  11.270  14.142
  172ETHO   H1336298   8.412  11.180  14.060
  172ETHO    C236299   8.210  11.101  14.021
  172ETHO   H2136300   8.240  11.016  14.086
  172ETHO   H2336301   8.224  11.073  13.915
  173ETHO    O136302   8.078  11.129  14.048
  173ETHO    C136303   7.984  11.023  14.048
  173ETHO   H1136304   7.967  11.010  13.939
  173ETHO   H1336305   8.035  10.935  14.094
  173ETHO    C236306   7.852  11.052  14.110
  173ETHO   H2136307   7.775  10.972  14.100
  173ETHO   H2336308   7.873  11.056  14.219
  174ETHO    O136309   7.776  11.161  14.056
  174ETHO    C136310   7.650  11.174  14.126
  174ETHO   H1136311   7.588  11.091  14.087
  174ETHO   H1336312   7.651  11.160  14.236
  174ETHO    C236313   7.595  11.313  14.102
  174ETHO   H2136314   7.675  11.390  14.095
  174ETHO   H2336315   7.525  11.349  14.181
  175ETHO    O136316   7.519  11.312  13.978
  175ETHO    C136317   7.455  11.434  13.955
  175ETHO   H1136318   7.396  11.458  14.046
  175ETHO   H1336319   7.528  11.515  13.932
  175ETHO    C236320   7.375  11.441  13.819
  175ETHO   H2136321   7.442  11.387  13.750
  175ETHO   H2336322   7.364  11.543  13.777
  176ETHO    O136323   7.243  11.387  13.833
  176ETHO    C136324   7.189  11.361  13.704
  176ETHO   H1136325   7.265  11.381  13.625
  176ETHO   H1336326   7.160  11.254  13.702
  176ETHO    C236327   7.056  11.437  13.693
  176ETHO   H2136328   6.983  11.403  13.769
  176ETHO   H2336329   7.025  11.421  13.587
  177ETHO    O136330   7.057  11.571  13.723
  177ETHO    C136331   6.926  11.625  13.691
  177ETHO   H1136332   6.861  11.606  13.779
  177ETHO   H1336333   6.886  11.581  13.597
  177ETHO    C236334   6.941  11.779  13.663
  177ETHO   H2136335   7.028  11.790  13.595
  177ETHO   H2336336   6.976  11.833  13.754
  178ETHO    O136337   6.830  11.839  13.595
  178ETHO    C136338   6.718  11.844  13.683
  178ETHO   H1136339   6.690  11.737  13.688
  178ETHO   H1336340   6.766  11.874  13.779
  178ETHO    C236341   6.615  11.927  13.607
  178ETHO   H2136342   6.520  11.926  13.665
  178ETHO   H2336343   6.595  11.890  13.505
  179ETHO    O136344   6.646  12.064  13.606
  179ETHO    C136345   6.531  12.150  13.582
  179ETHO   H1136346   6.448  12.138  13.655
  179ETHO   H1336347   6.491  12.133  13.480
  179ETHO    C236348   6.573  12.296  13.586
  179ETHO   H2136349   6.486  12.352  13.545
  179ETHO   H2336350   6.662  12.317  13.523
  180ETHO    O136351   6.602  12.339  13.717
  180ETHO    C136352   6.619  12.477  13.718
  180ETHO   H1136353   6.683  12.496  13.807
  180ETHO   H1336354   6.681  12.520  13.637
  180ETHO    C236355   6.498  12.571  13.734
  180ETHO   H2136356   6.533  12.664  13.783
  180ETHO   H2336357   6.423  12.525  13.802
  181ETHO    O136358   6.436  12.605  13.609
  181ETHO    C136359   6.345  12.706  13.619
  181ETHO   H1136360   6.400  12.801  13.603
  181ETHO   H1336361   6.294  12.705  13.717
  181ETHO    C236362   6.242  12.687  13.513
  181ETHO   H2136363   6.152  12.746  13.538
  181ETHO   H2336364   6.224  12.578  13.510
  182ETHO    O136365   6.276  12.729  13.382
  182ETHO    C136366   6.228  12.638  13.289
  182ETHO   H1136367   6.140  12.588  13.336
  182ETHO   H1336368   6.192  12.682  13.194
  182ETHO    C236369   6.334  12.539  13.259
  182ETHO   H2136370   6.385  12.499  13.349
  182ETHO   H2336371   6.413  12.594  13.204
  183ETHO    O136372   6.283  12.429  13.189
  183ETHO    C136373   6.339  12.303  13.221
  183ETHO   H1136374   6.444  12.316  13.257
  183ETHO   H1336375   6.345  12.244  13.127
  183ETHO    C236376   6.247  12.235  13.332
  183ETHO   H2136377   6.286  12.133  13.351
  183ETHO   H2336378   6.144  12.243  13.292
  184ETHO    O136379   6.267  12.295  13.459
  184ETHO    C136380   6.173  12.243  13.552
  184ETHO   H1136381   6.071  12.259  13.512
  184ETHO   H1336382   6.177  12.132  13.555
  184ETHO    C236383   6.202  12.309  13.686
  184ETHO   H2136384   6.176  12.416  13.670
  184ETHO   H2336385   6.307  12.299  13.721
  185ETHO    O136386   6.107  12.266  13.785
  185ETHO    C136387   6.154  12.148  13.851
  185ETHO   H1136388   6.197  12.073  13.781
  185ETHO   H1336389   6.229  12.180  13.927
  185ETHO    C236390   6.041  12.087  13.927
  185ETHO   H2136391   5.952  12.082  13.861
  185ETHO   H2336392   6.004  12.149  14.012
  186ETHO    O136393   6.090  11.955  13.966
  186ETHO    C136394   5.985  11.885  14.036
  186ETHO   H1136395   5.961  11.938  14.131
  186ETHO   H1336396   5.889  11.887  13.979
  186ETHO    C236397   6.018  11.741  14.083
  186ETHO   H2136398   5.954  11.721  14.171
  186ETHO   H2336399   6.122  11.737  14.122
  187ETHO    O136400   6.002  11.640  13.990
  187ETHO    C136401   6.013  11.513  14.053
  187ETHO   H1136402   6.119  11.488  14.031
  187ETHO   H1336403   6.016  11.525  14.163
  187ETHO    C236404   5.896  11.421  14.007
  187ETHO   H2136405   5.808  11.487  13.991
  187ETHO   H2336406   5.883  11.345  14.087
  188ETHO    O136407   5.931  11.351  13.883
  188ETHO    C136408   5.818  11.298  13.813
  188ETHO   H1136409   5.737  11.374  13.809
  188ETHO   H1336410   5.783  11.210  13.871
  188ETHO    C236411   5.849  11.268  13.664
  188ETHO   H2136412   5.920  11.348  13.634
  188ETHO   H2336413   5.755  11.296  13.611
  189ETHO    O136414   5.877  11.133  13.658
  189ETHO    C136415   5.883  11.075  13.532
  189ETHO   H1136416   5.782  11.095  13.491
  189ETHO   H1336417   5.962  11.124  13.472
  189ETHO    C236418   5.884  10.925  13.542
  189ETHO   H2136419   5.973  10.890  13.599
  189ETHO   H2336420   5.891  10.875  13.443
  190ETHO    O136421   5.765  10.897  13.615
  190ETHO    C136422   5.660  10.847  13.535
  190ETHO   H1136423   5.662  10.740  13.566
  190ETHO   H1336424   5.681  10.854  13.426
  190ETHO    C236425   5.528  10.915  13.568
  190ETHO   H2136426   5.501  10.899  13.675
  190ETHO   H2336427   5.456  10.864  13.501
  191ETHO    O136428   5.514  11.049  13.527
  191ETHO    C136429   5.375  11.087  13.515
  191ETHO   H1136430   5.362  11.142  13.419
  191ETHO   H1336431   5.306  10.999  13.509
  191ETHO    C236432   5.321  11.169  13.637
  191ETHO   H2136433   5.391  11.253  13.658
  191ETHO   H2336434   5.312  11.103  13.726
  192ETHO    O136435   5.184  11.215  13.610
  192ETHO    C136436   5.145  11.301  13.710
  192ETHO   H1136437   5.208  11.390  13.725
  192ETHO   H1336438   5.144  11.241  13.804
  192ETHO    C236439   5.011  11.369  13.688
  192ETHO   H2136440   5.013  11.413  13.586
  192ETHO   H2336441   5.008  11.447  13.767
  193ETHO    O136442   4.894  11.283  13.702
  193ETHO    C136443   4.770  11.348  13.689
  193ETHO   H1136444   4.772  11.432  13.762
  193ETHO   H1336445   4.762  11.388  13.585
  193ETHO    C236446   4.654  11.248  13.699
  193ETHO   H2136447   4.656  11.174  13.616
  193ETHO   H2336448   4.556  11.301  13.696
  194ETHO    O136449   4.671  11.185  13.826
  194ETHO    C136450   4.584  11.074  13.828
  194ETHO   H1136451   4.495  11.089  13.762
  194ETHO   H1336452   4.544  11.076  13.931
  194ETHO    C236453   4.660  10.944  13.802
  194ETHO   H2136454   4.583  10.872  13.837
  194ETHO   H2336455   4.753  10.935  13.863
  195ETHO    O136456   4.696  10.921  13.662
  195ETHO    C136457   4.744  10.790  13.649
  195ETHO   H1136458   4.849  10.781  13.684
  195ETHO   H1336459   4.693  10.716  13.715
  195ETHO    C236460   4.719  10.742  13.507
  195ETHO   H2136461   4.610  10.754  13.490
  195ETHO   H2336462   4.741  10.633  13.499
  196ETHO    O136463   4.791  10.810  13.397
  196ETHO    C136464   4.796  10.729  13.274
  196ETHO   H1136465   4.829  10.628  13.305
  196ETHO   H1336466   4.703  10.707  13.217
  196ETHO    C236467   4.907  10.770  13.169
  196ETHO   H2136468   4.887  10.874  13.135
  196ETHO   H2336469   4.896  10.701  13.083
  197ETHO    O136470   5.035  10.739  13.213
  197ETHO    C136471   5.134  10.761  13.114
  197ETHO   H1136472   5.128  10.678  13.041
  197ETHO   H1336473   5.113  10.855  13.058
  197ETHO    C236474   5.275  10.772  13.169
  197ETHO   H2136475   5.279  10.840  13.257
  197ETHO   H2336476   5.339  10.821  13.092
  198ETHO    O136477   5.335  10.646  13.181
  198ETHO    C136478   5.469  10.662  13.223
  198ETHO   H1136479   5.532  10.683  13.134
  198ETHO   H1336480   5.488  10.752  13.284
  198ETHO    C236481   5.511  10.532  13.288
  198ETHO   H2136482   5.462  10.446  13.238
  198ETHO   H2336483   5.495  10.541  13.398
  199ETHO    O136484   5.652  10.522  13.271
  199ETHO    C136485   5.696  10.386  13.271
  199ETHO   H1136486   5.615  10.319  13.309
  199ETHO   H1336487   5.792  10.375  13.325
  199ETHO    C236488   5.721  10.336  13.128
  199ETHO   H2136489   5.622  10.344  13.078
  199ETHO   H2336490   5.750  10.229  13.130
  200ETHO    O136491   5.807  10.428  13.064
  200ETHO    C136492   5.808  10.405  12.924
  200ETHO   H1136493   5.854  10.304  12.912
  200ETHO   H1336494   5.702  10.410  12.891
  200ETHO    C236495   5.894  10.502  12.846
  200ETHO   H2136496   5.865  10.609  12.833
  200ETHO   H2336497   5.894  10.453  12.747
  201ETHO    O136498   6.031  10.501  12.886
  201ETHO    C136499   6.104  10.596  12.814
  201ETHO   H1136500   6.048  10.618  12.721
  201ETHO   H1336501   6.204  10.556  12.789
  201ETHO    C236502   6.134  10.717  12.903
  201ETHO   H2136503   6.037  10.768  12.921
  201ETHO   H2336504   6.189  10.791  12.841
  202ETHO    O136505   6.205  10.684  13.022
  202ETHO    C136506   6.221  10.804  13.091
  202ETHO   H1136507   6.288  10.867  13.029
  202ETHO   H1336508   6.121  10.853  13.098
  202ETHO    C236509   6.290  10.786  13.229
  202ETHO   H2136510   6.243  10.700  13.281
  202ETHO   H2336511   6.279  10.871  13.300
  203ETHO    O136512   6.427  10.788  13.205
  203ETHO    C136513   6.484  10.656  13.179
  203ETHO   H1136514   6.439  10.609  13.089
  203ETHO   H1336515   6.469  10.590  13.267
  203ETHO    C236516   6.633  10.667  13.147
  203ETHO   H2136517   6.684  10.573  13.180
  203ETHO   H2336518   6.676  10.739  13.220
  204ETHO    O136519   6.663  10.686  13.012
  204ETHO    C136520   6.654  10.821  12.977
  204ETHO   H1136521   6.554  10.866  12.965
  204ETHO   H1336522   6.688  10.880  13.066
  204ETHO    C236523   6.740  10.865  12.858
  204ETHO   H2136524   6.724  10.968  12.818
  204ETHO   H2336525   6.734  10.795  12.773
  205ETHO    O136526   6.873  10.849  12.902
  205ETHO    C136527   6.969  10.867  12.797
  205ETHO   H1136528   7.063  10.897  12.848
  205ETHO   H1336529   6.937  10.949  12.729
  205ETHO    C236530   6.990  10.732  12.733
  205ETHO   H2136531   7.054  10.747  12.644
  205ETHO   H2336532   6.898  10.685  12.691
  206ETHO    O136533   7.056  10.633  12.817
  206ETHO    C136534   7.101  10.516  12.764
  206ETHO   H1136535   7.014  10.447  12.758
  206ETHO   H1336536   7.148  10.528  12.664
  206ETHO    C236537   7.216  10.457  12.850
  206ETHO   H2136538   7.263  10.378  12.787
  206ETHO   H2336539   7.287  10.541  12.865
  207ETHO    O136540   7.154  10.415  12.965
  207ETHO    C136541   7.257  10.419  13.065
  207ETHO   H1136542   7.309  10.517  13.066
  207ETHO   H1336543   7.330  10.338  13.042
  207ETHO    C236544   7.205  10.416  13.211
  207ETHO   H2136545   7.105  10.459  13.230
  207ETHO   H2336546   7.288  10.460  13.271
  208ETHO    O136547   7.183  10.283  13.257
  208ETHO    C136548   7.126  10.275  13.386
  208ETHO   H1136549   7.203  10.239  13.457
  208ETHO   H1336550   7.087  10.377  13.410
  208ETHO    C236551   7.019  10.167  13.395
  208ETHO   H2136552   7.000  10.145  13.502
  208ETHO   H2336553   7.057  10.072  13.350
  209ETHO    O136554   6.889  10.207  13.327
  209ETHO    C136555   6.807  10.088  13.310
  209ETHO   H1136556   6.861   9.992  13.321
  209ETHO   H1336557   6.773  10.089  13.204
  209ETHO    C236558   6.689  10.054  13.407
  209ETHO   H2136559   6.724  10.058  13.512
  209ETHO   H2336560   6.662   9.947  13.394
  210ETHO    O136561   6.584  10.148  13.390
  210ETHO    C136562   6.465  10.092  13.334
  210ETHO   H1136563   6.492  10.000  13.278
  210ETHO   H1336564   6.409  10.059  13.423
  210ETHO    C236565   6.397  10.194  13.245
  210ETHO   H2136566   6.369  10.292  13.288
  210ETHO   H2336567   6.294  10.151  13.240
  211ETHO    O136568   6.465  10.198  13.120
  211ETHO    C136569   6.381  10.256  13.015
  211ETHO   H1136570   6.286  10.200  13.019
  211ETHO   H1336571   6.362  10.364  13.037
  211ETHO    C236572   6.455  10.231  12.887
  211ETHO   H2136573   6.402  10.274  12.800
  211ETHO   H2336574   6.445  10.120  12.884
  212ETHO    O136575   6.587  10.278  12.882
  212ETHO    C136576   6.598  10.413  12.844
  212ETHO   H1136577   6.549  10.440  12.748
  212ETHO   H1336578   6.566  10.476  12.929
  212ETHO    C236579   6.743  10.448  12.825
  212ETHO   H2136580   6.800  10.428  12.919
  212ETHO   H2336581   6.750  10.558  12.808
  213ETHO    O136582   6.800  10.378  12.714
  213ETHO    C136583   6.773  10.427  12.578
  213ETHO   H1136584   6.663  10.443  12.566
  213ETHO   H1336585   6.840  10.512  12.553
  213ETHO    C236586   6.815  10.320  12.476
  213ETHO   H2136587   6.755  10.227  12.475
  213ETHO   H2336588   6.915  10.286  12.511
  214ETHO    O136589   6.833  10.375  12.346
  214ETHO    C136590   6.709  10.412  12.292
  214ETHO   H1136591   6.672  10.501  12.346
  214ETHO   H1336592   6.650  10.317  12.292
  214ETHO    C236593   6.721  10.443  12.143
  214ETHO   H2136594   6.808  10.512  12.131
  214ETHO   H2336595   6.624  10.491  12.117
  215ETHO    O136596   6.732  10.326  12.061
  215ETHO    C136597   6.719  10.357  11.917
  215ETHO   H1136598   6.611  10.365  11.896
  215ETHO   H1336599   6.750  10.462  11.904
  215ETHO    C236600   6.792  10.252  11.817
  215ETHO   H2136601   6.764  10.280  11.714
  215ETHO   H2336602   6.754  10.150  11.842
  216ETHO    O136603   6.932  10.264  11.834
  216ETHO    C136604   6.980  10.169  11.929
  216ETHO   H1136605   6.983  10.081  11.861
  216ETHO   H1336606   6.920  10.152  12.022
  216ETHO    C236607   7.130  10.191  11.962
  216ETHO   H2136608   7.188  10.215  11.871
  216ETHO   H2336609   7.196  10.110  12.000
  217ETHO    O136610   7.152  10.300  12.050
  217ETHO    C136611   7.085  10.292  12.176
  217ETHO   H1136612   7.014  10.377  12.184
  217ETHO   H1336613   7.019  10.203  12.179
  217ETHO    C236614   7.178  10.303  12.298
  217ETHO   H2136615   7.268  10.242  12.279
  217ETHO   H2336616   7.120  10.276  12.388
  218ETHO    O136617   7.218  10.436  12.311
  218ETHO    C136618   7.314  10.449  12.407
  218ETHO   H1136619   7.410  10.398  12.385
  218ETHO   H1336620   7.273  10.407  12.501
  218ETHO    C236621   7.351  10.600  12.428
  218ETHO   H2136622   7.410  10.614  12.521
  218ETHO   H2336623   7.259  10.657  12.454
  219ETHO    O136624   7.422  10.652  12.322
  219ETHO    C136625   7.410  10.795  12.309
  219ETHO   H1136626   7.452  10.818  12.209
  219ETHO   H1336627   7.303  10.819  12.293
  219ETHO    C236628   7.482  10.884  12.410
  219ETHO   H2136629   7.439  10.862  12.511
  219ETHO   H2336630   7.460  10.991  12.388
  220ETHO    O136631   7.622  10.875  12.406
  220ETHO    C136632   7.680  10.961  12.308
  220ETHO   H1136633   7.692  11.061  12.355
  220ETHO   H1336634   7.628  10.975  12.211
  220ETHO    C236635   7.817  10.900  12.276
  220ETHO   H2136636   7.876  10.959  12.203
  220ETHO   H2336637   7.793  10.803  12.227
  221ETHO    O136638   7.899  10.871  12.383
  221ETHO    C136639   8.012  10.790  12.343
  221ETHO   H1136640   7.975  10.685  12.340
  221ETHO   H1336641   8.043  10.820  12.241
  221ETHO    C236642   8.123  10.798  12.445
  221ETHO   H2136643   8.192  10.717  12.414
  221ETHO   H2336644   8.078  10.772  12.544
  222ETHO    O136645   8.198  10.916  12.440
  222ETHO    C136646   8.297  10.909  12.539
  222ETHO   H1136647   8.252  10.892  12.639
  222ETHO   H1336648   8.369  10.827  12.514
  222ETHO    C236649   8.380  11.035  12.556
  222ETHO   H2136650   8.408  11.061  12.452
  222ETHO   H2336651   8.468  11.019  12.622
  223ETHO    O136652   8.301  11.144  12.604
  223ETHO    C136653   8.350  11.272  12.571
  223ETHO   H1136654   8.456  11.281  12.603
  223ETHO   H1336655   8.338  11.293  12.463
  223ETHO    C236656   8.272  11.364  12.660
  223ETHO   H2136657   8.311  11.467  12.646
  223ETHO   H2336658   8.298  11.349  12.767
  224ETHO    O136659   8.125  11.355  12.666
  224ETHO    C136660   8.076  11.478  12.728
  224ETHO   H1136661   8.103  11.482  12.836
  224ETHO   H1336662   8.117  11.563  12.671
  224ETHO    C236663   7.924  11.486  12.711
  224ETHO   H2136664   7.901  11.466  12.604
  224ETHO   H2336665   7.886  11.589  12.731
  225ETHO    O136666   7.872  11.392  12.800
  225ETHO    C136667   7.832  11.275  12.737
  225ETHO   H1136668   7.819  11.206  12.824
  225ETHO   H1336669   7.907  11.238  12.664
  225ETHO    C236670   7.685  11.281  12.685
  225ETHO   H2136671   7.658  11.191  12.625
  225ETHO   H2336672   7.694  11.368  12.617
  226ETHO    O136673   7.581  11.311  12.773
  226ETHO    C136674   7.496  11.204  12.814
  226ETHO   H1136675   7.513  11.117  12.746
  226ETHO   H1336676   7.515  11.176  12.919
  226ETHO    C236677   7.348  11.271  12.809
  226ETHO   H2136678   7.360  11.369  12.859
  226ETHO   H2336679   7.285  11.217  12.882
  227ETHO    O136680   7.273  11.282  12.690
  227ETHO    C136681   7.310  11.396  12.610
  227ETHO   H1136682   7.410  11.390  12.562
  227ETHO   H1336683   7.320  11.484  12.676
  227ETHO    C236684   7.204  11.432  12.503
  227ETHO   H2136685   7.183  11.355  12.425
  227ETHO   H2336686   7.244  11.517  12.444
  228ETHO    O136687   7.074  11.473  12.561
  228ETHO    C136688   6.982  11.517  12.463
  228ETHO   H1136689   6.905  11.575  12.518
  228ETHO   H1336690   7.032  11.586  12.392
  228ETHO    C236691   6.904  11.406  12.396
  228ETHO   H2136692   6.965  11.348  12.324
  228ETHO   H2336693   6.813  11.449  12.350
  229ETHO    O136694   6.859  11.330  12.502
  229ETHO    C136695   6.785  11.217  12.448
  229ETHO   H1136696   6.772  11.139  12.525
  229ETHO   H1336697   6.842  11.174  12.363
  229ETHO    C236698   6.638  11.247  12.401
  229ETHO   H2136699   6.653  11.290  12.299
  229ETHO   H2336700   6.609  11.335  12.463
  230ETHO    O136701   6.546  11.139  12.403
  230ETHO    C136702   6.434  11.165  12.315
  230ETHO   H1136703   6.355  11.095  12.350
  230ETHO   H1336704   6.395  11.266  12.340
  230ETHO    C236705   6.442  11.147  12.163
  230ETHO   H2136706   6.544  11.167  12.124
  230ETHO   H2336707   6.369  11.209  12.107
  231ETHO    O136708   6.394  11.018  12.122
  231ETHO    C136709   6.489  10.915  12.161
  231ETHO   H1136710   6.531  10.929  12.263
  231ETHO   H1336711   6.577  10.928  12.094
  231ETHO    C236712   6.425  10.775  12.157
  231ETHO   H2136713   6.333  10.776  12.220
  231ETHO   H2336714   6.496  10.697  12.193
  232ETHO    O136715   6.378  10.739  12.025
  232ETHO    C136716   6.321  10.604  12.030
  232ETHO   H1136717   6.392  10.526  12.064
  232ETHO   H1336718   6.241  10.595  12.107
  232ETHO    C236719   6.282  10.559  11.891
  232ETHO   H2136720   6.236  10.458  11.887
  232ETHO   H2336721   6.377  10.553  11.834
  233ETHO    O136722   6.198  10.649  11.819
  233ETHO    C136723   6.060  10.634  11.858
  233ETHO   H1136724   6.027  10.534  11.822
  233ETHO   H1336725   6.043  10.636  11.968
  233ETHO    C236726   5.972  10.751  11.808
  233ETHO   H2136727   5.866  10.749  11.843
  233ETHO   H2336728   5.964  10.751  11.697
  234ETHO    O136729   6.022  10.869  11.864
  234ETHO    C136730   5.931  10.923  11.958
  234ETHO   H1136731   5.835  10.958  11.914
  234ETHO   H1336732   5.903  10.860  12.045
  234ETHO    C236733   6.003  11.045  12.025
  234ETHO   H2136734   6.087  11.086  11.965
  234ETHO   H2336735   6.053  11.006  12.117
  235ETHO    O136736   5.906  11.147  12.063
  235ETHO    C136737   5.971  11.275  12.072
  235ETHO   H1136738   6.050  11.278  12.150
  235ETHO   H1336739   6.010  11.302  11.971
  235ETHO    C236740   5.880  11.398  12.101
  235ETHO   H2136741   5.812  11.413  12.014
  235ETHO   H2336742   5.939  11.491  12.084
  236ETHO    O136743   5.824  11.395  12.231
  236ETHO    C136744   5.810  11.528  12.279
  236ETHO   H1136745   5.753  11.594  12.210
  236ETHO   H1336746   5.915  11.564  12.290
  236ETHO    C236747   5.754  11.518  12.420
  236ETHO   H2136748   5.752  11.621  12.463
  236ETHO   H2336749   5.816  11.450  12.482
  237ETHO    O136750   5.616  11.478  12.411
  237ETHO    C136751   5.572  11.417  12.530
  237ETHO   H1136752   5.636  11.328  12.542
  237ETHO   H1336753   5.586  11.486  12.616
  237ETHO    C236754   5.428  11.359  12.531
  237ETHO   H2136755   5.423  11.296  12.623
  237ETHO   H2336756   5.418  11.283  12.451
  238ETHO    O136757   5.322  11.445  12.551
  238ETHO    C136758   5.287  11.512  12.433
  238ETHO   H1136759   5.368  11.522  12.357
  238ETHO   H1336760   5.249  11.613  12.458
  238ETHO    C236761   5.168  11.439  12.375
  238ETHO   H2136762   5.207  11.343  12.335
  238ETHO   H2336763   5.133  11.503  12.291
  239ETHO    O136764   5.051  11.425  12.456
  239ETHO    C136765   5.033  11.287  12.499
  239ETHO   H1136766   5.009  11.220  12.413
  239ETHO   H1336767   5.111  11.230  12.555
  239ETHO    C236768   4.917  11.263  12.601
  239ETHO   H2136769   4.915  11.154  12.622
  239ETHO   H2336770   4.945  11.303  12.701
  240ETHO    O136771   4.793  11.314  12.554
  240ETHO    C136772   4.754  11.277  12.427
  240ETHO   H1136773   4.774  11.171  12.401
  240ETHO   H1336774   4.804  11.336  12.347
  240ETHO    C236775   4.602  11.296  12.409
  240ETHO   H2136776   4.565  11.265  12.309
  240ETHO   H2336777   4.584  11.405  12.417
  241ETHO    O136778   4.508  11.227  12.488
  241ETHO    C136779   4.478  11.290  12.610
  241ETHO   H1136780   4.555  11.355  12.658
  241ETHO   H1336781   4.380  11.340  12.596
  241ETHO    C236782   4.440  11.185  12.710
  241ETHO   H2136783   4.440  11.220  12.815
  241ETHO   H2336784   4.520  11.110  12.689
  242ETHO    O136785   4.323  11.111  12.700
  242ETHO    C136786   4.310  11.020  12.808
  242ETHO   H1136787   4.290  11.073  12.904
  242ETHO   H1336788   4.399  10.956  12.823
  242ETHO    C236789   4.190  10.916  12.787
  242ETHO   H2136790   4.108  10.984  12.755
  242ETHO   H2336791   4.164  10.885  12.890
  243ETHO    O136792   4.226  10.812  12.698
  243ETHO    C136793   4.114  10.730  12.684
  243ETHO   H1136794   4.084  10.684  12.781
  243ETHO   H1336795   4.024  10.787  12.652
  243ETHO    C236796   4.133  10.607  12.600
  243ETHO   H2136797   4.046  10.539  12.609
  243ETHO   H2336798   4.214  10.546  12.645
  244ETHO    O136799   4.155  10.639  12.462
  244ETHO    C136800   4.179  10.525  12.384
  244ETHO   H1136801   4.134  10.435  12.431
  244ETHO   H1336802   4.288  10.514  12.369
  244ETHO    C236803   4.108  10.529  12.248
  244ETHO   H2136804   4.123  10.428  12.203
  244ETHO   H2336805   4.153  10.608  12.184
  245ETHO    O136806   3.964  10.551  12.255
  245ETHO    C136807   3.918  10.580  12.123
  245ETHO   H1136808   3.941  10.683  12.090
  245ETHO   H1336809   3.951  10.502  12.051
  245ETHO    C236810   3.765  10.570  12.108
  245ETHO   H2136811   3.743  10.463  12.129
  245ETHO   H2336812   3.737  10.602  12.006
  246ETHO    O136813   3.705  10.658  12.194
  246ETHO    C136814   3.564  10.655  12.193
  246ETHO   H1136815   3.531  10.554  12.223
  246ETHO   H1336816   3.523  10.667  12.090
  246ETHO    C236817   3.514  10.758  12.297
  246ETHO   H2136818   3.405  10.752  12.319
  246ETHO   H2336819   3.554  10.854  12.257
  247ETHO    O136820   3.575  10.738  12.424
  247ETHO    C136821   3.550  10.847  12.516
  247ETHO   H1136822   3.606  10.938  12.485
  247ETHO   H1336823   3.443  10.879  12.516
  247ETHO    C236824   3.602  10.815  12.656
  247ETHO   H2136825   3.533  10.860  12.731
  247ETHO   H2336826   3.603  10.705  12.669
  248ETHO    O136827   3.732  10.870  12.675
  248ETHO    C136828   3.760  10.884  12.811
  248ETHO   H1136829   3.852  10.943  12.833
  248ETHO   H1336830   3.681  10.939  12.867
  248ETHO    C236831   3.792  10.752  12.886
  248ETHO   H2136832   3.868  10.684  12.842
  248ETHO   H2336833   3.701  10.690  12.902
  249ETHO    O136834   3.838  10.798  13.013
  249ETHO    C136835   3.928  10.713  13.077
  249ETHO   H1136836   3.880  10.625  13.125
  249ETHO   H1336837   3.999  10.671  13.002
  249ETHO    C236838   4.014  10.800  13.176
  249ETHO   H2136839   4.062  10.882  13.119
  249ETHO   H2336840   4.092  10.736  13.223
  250ETHO    O136841   3.936  10.873  13.272
  250ETHO    C136842   4.018  10.950  13.362
  250ETHO   H1136843   4.072  10.876  13.425
  250ETHO   H1336844   4.099  11.005  13.308
  250ETHO    C236845   3.943  11.045  13.455
  250ETHO   H2136846   4.011  11.097  13.526
  250ETHO   H2336847   3.876  10.989  13.524
  251ETHO    O136848   3.884  11.157  13.385
  251ETHO    C136849   3.767  11.116  13.318
  251ETHO   H1136850   3.701  11.066  13.392
  251ETHO   H1336851   3.779  11.042  13.237
  251ETHO    C236852   3.697  11.235  13.258
  251ETHO   H2136853   3.679  11.312  13.336
  251ETHO   H2336854   3.596  11.202  13.227
  252ETHO    O136855   3.770  11.275  13.138
  252ETHO    C136856   3.728  11.401  13.098
  252ETHO   H1136857   3.617  11.391  13.101
  252ETHO   H1336858   3.742  11.482  13.173
  252ETHO    C236859   3.779  11.441  12.962
  252ETHO   H2136860   3.888  11.422  12.953
  252ETHO   H2336861   3.766  11.547  12.932
  253ETHO    O136862   3.708  11.360  12.864
  253ETHO    C136863   3.769  11.371  12.732
  253ETHO   H1136864   3.872  11.330  12.723
  253ETHO   H1336865   3.787  11.481  12.734
  253ETHO    C236866   3.679  11.319  12.626
  253ETHO   H2136867   3.576  11.343  12.660
  253ETHO   H2336868   3.689  11.209  12.614
  254ETHO    O136869   3.700  11.382  12.494
  254ETHO    C136870   3.654  11.519  12.500
  254ETHO   H1136871   3.547  11.524  12.526
  254ETHO   H1336872   3.706  11.577  12.579
  254ETHO    C236873   3.685  11.590  12.360
  254ETHO   H2136874   3.665  11.521  12.276
  254ETHO   H2336875   3.795  11.603  12.361
  255ETHO    O136876   3.616  11.708  12.327
  255ETHO    C136877   3.640  11.751  12.197
  255ETHO   H1136878   3.621  11.675  12.118
  255ETHO   H1336879   3.749  11.773  12.192
  255ETHO    C236880   3.553  11.879  12.161
  255ETHO   H2136881   3.577  11.901  12.054
  255ETHO   H2336882   3.574  11.966  12.227
  256ETHO    O136883   3.414  11.840  12.166
  256ETHO    C136884   3.354  11.817  12.039
  256ETHO   H1136885   3.330  11.915  11.993
  256ETHO   H1336886   3.435  11.767  11.982
  256ETHO    C236887   3.223  11.731  12.026
  256ETHO   H2136888   3.234  11.642  12.093
  256ETHO   H2336889   3.215  11.697  11.921
  257ETHO    O136890   3.101  11.798  12.061
  257ETHO    C136891   2.990  11.714  12.044
  257ETHO   H1136892   2.999  11.623  12.107
  257ETHO   H1336893   2.989  11.679  11.939
  257ETHO    C236894   2.867  11.788  12.085
  257ETHO   H2136895   2.890  11.851  12.174
  257ETHO   H2336896   2.793  11.714  12.122
  258ETHO    O136897   2.832  11.868  11.967
  258ETHO    C136898   2.711  11.934  11.974
  258ETHO   H1136899   2.629  11.859  11.983
  258ETHO   H1336900   2.706  11.997  12.065
  258ETHO    C236901   2.669  12.017  11.851
  258ETHO   H2136902   2.751  12.090  11.837
  258ETHO   H2336903   2.574  12.072  11.867
  259ETHO    O136904   2.660  11.947  11.730
  259ETHO    C136905   2.557  11.853  11.713
  259ETHO   H1136906   2.498  11.841  11.806
  259ETHO   H1336907   2.486  11.891  11.636
  259ETHO    C236908   2.598  11.709  11.684
  259ETHO   H2136909   2.505  11.655  11.657
  259ETHO   H2336910   2.646  11.670  11.776
  260ETHO    O136911   2.689  11.700  11.573
  260ETHO    C136912   2.741  11.562  11.571
  260ETHO   H1136913   2.799  11.547  11.664
  260ETHO   H1336914   2.654  11.494  11.571
  260ETHO    C236915   2.838  11.533  11.454
  260ETHO   H2136916   2.914  11.459  11.485
  260ETHO   H2336917   2.898  11.622  11.425
  261ETHO    O136918   2.772  11.476  11.337
  261ETHO    C136919   2.866  11.437  11.243
  261ETHO   H1136920   2.912  11.529  11.201
  261ETHO   H1336921   2.938  11.370  11.295
  261ETHO    C236922   2.791  11.355  11.134
  261ETHO   H2136923   2.845  11.346  11.038
  261ETHO   H2336924   2.697  11.408  11.106
  262ETHO    O136925   2.770  11.235  11.192
  262ETHO    C136926   2.688  11.146  11.117
  262ETHO   H1136927   2.707  11.038  11.133
  262ETHO   H1336928   2.720  11.166  11.012
  262ETHO    C236929   2.539  11.170  11.138
  262ETHO   H2136930   2.481  11.105  11.068
  262ETHO   H2336931   2.506  11.273  11.112
  263ETHO    O136932   2.501  11.114  11.257
  263ETHO    C136933   2.367  11.142  11.287
  263ETHO   H1136934   2.301  11.132  11.198
  263ETHO   H1336935   2.363  11.252  11.304
  263ETHO    C236936   2.315  11.073  11.410
  263ETHO   H2136937   2.226  11.124  11.453
  263ETHO   H2336938   2.394  11.082  11.487
  264ETHO    O136939   2.305  10.930  11.393
  264ETHO    C136940   2.429  10.865  11.432
  264ETHO   H1136941   2.433  10.865  11.543
  264ETHO   H1336942   2.512  10.912  11.376
  264ETHO    C236943   2.432  10.718  11.380
  264ETHO   H2136944   2.539  10.688  11.382
  264ETHO   H2336945   2.396  10.713  11.275
  265ETHO    O136946   2.355  10.633  11.464
  265ETHO    C136947   2.388  10.498  11.434
  265ETHO   H1136948   2.335  10.478  11.338
  265ETHO   H1336949   2.498  10.488  11.422
  265ETHO    C236950   2.344  10.402  11.543
  265ETHO   H2136951   2.354  10.450  11.642
  265ETHO   H2336952   2.407  10.311  11.549
  265ETHO    OZ36953   2.212  10.351  11.524
  265ETHO   HZ136954   2.206  10.283  11.591
    1ETHO    O136955  15.335   8.353   5.731
    1ETHO   HO136956  15.267   8.414   5.762
    1ETHO    C136957  15.471   8.408   5.744
    1ETHO   H1136958  15.534   8.323   5.709
    1ETHO   H1336959  15.481   8.419   5.854
    1ETHO    C236960  15.491   8.532   5.654
    1ETHO   H2136961  15.471   8.523   5.545
    1ETHO   H2336962  15.602   8.539   5.658
    2ETHO    O136963  15.429   8.651   5.703
    2ETHO    C136964  15.463   8.766   5.624
    2ETHO   H1136965  15.572   8.787   5.627
    2ETHO   H1336966  15.431   8.744   5.520
    2ETHO    C236967  15.388   8.892   5.659
    2ETHO   H2136968  15.284   8.863   5.687
    2ETHO   H2336969  15.383   8.968   5.578
    3ETHO    O136970  15.445   8.951   5.779
    3ETHO    C136971  15.377   9.067   5.824
    3ETHO   H1136972  15.271   9.079   5.793
    3ETHO   H1336973  15.419   9.150   5.764
    3ETHO    C236974  15.404   9.093   5.971
    3ETHO   H2136975  15.347   9.184   6.001
    3ETHO   H2336976  15.512   9.115   5.982
    4ETHO    O136977  15.359   8.991   6.054
    4ETHO    C136978  15.381   9.011   6.188
    4ETHO   H1136979  15.473   8.955   6.213
    4ETHO   H1336980  15.408   9.117   6.209
    4ETHO    C236981  15.266   8.960   6.289
    4ETHO   H2136982  15.301   8.969   6.393
    4ETHO   H2336983  15.258   8.853   6.258
    5ETHO    O136984  15.144   9.023   6.256
    5ETHO    C136985  15.035   8.939   6.284
    5ETHO   H1136986  15.052   8.835   6.250
    5ETHO   H1336987  15.031   8.938   6.395
    5ETHO    C236988  14.912   9.017   6.240
    5ETHO   H2136989  14.815   8.966   6.260
    5ETHO   H2336990  14.928   9.032   6.131
    6ETHO    O136991  14.903   9.150   6.297
    6ETHO    C136992  14.816   9.240   6.219
    6ETHO   H1136993  14.842   9.242   6.111
    6ETHO   H1336994  14.710   9.206   6.215
    6ETHO    C236995  14.810   9.381   6.288
    6ETHO   H2136996  14.783   9.373   6.396
    6ETHO   H2336997  14.727   9.434   6.238
    7ETHO    O136998  14.929   9.462   6.272
    7ETHO    C136999  14.928   9.573   6.365
    7ETHO   H1137000  14.822   9.606   6.380
    7ETHO   H1337001  14.990   9.541   6.451
    7ETHO    C237002  14.998   9.685   6.300
    7ETHO   H2137003  14.931   9.707   6.214
    7ETHO   H2337004  15.102   9.665   6.265
    8ETHO    O137005  14.999   9.791   6.400
    8ETHO    C137006  15.000   9.912   6.336
    8ETHO   H1137007  14.895   9.938   6.310
    8ETHO   H1337008  15.055   9.905   6.240
    8ETHO    C237009  15.046  10.022   6.430
    8ETHO   H2137010  15.074  10.118   6.382
    8ETHO   H2337011  15.136   9.979   6.477
    9ETHO    O137012  14.933  10.047   6.524
    9ETHO    C137013  14.975  10.133   6.627
    9ETHO   H1137014  15.069  10.099   6.674
    9ETHO   H1337015  14.997  10.232   6.582
    9ETHO    C237016  14.862  10.159   6.732
    9ETHO   H2137017  14.898  10.231   6.809
    9ETHO   H2337018  14.837  10.064   6.785
   10ETHO    O137019  14.748  10.219   6.676
   10ETHO    C137020  14.653  10.137   6.607
   10ETHO   H1137021  14.560  10.120   6.665
   10ETHO   H1337022  14.717  10.046   6.603
   10ETHO    C237023  14.634  10.196   6.466
   10ETHO   H2137024  14.579  10.120   6.407
   10ETHO   H2337025  14.725  10.239   6.420
   11ETHO    O137026  14.550  10.307   6.469
   11ETHO    C137027  14.542  10.372   6.341
   11ETHO   H1137028  14.465  10.452   6.351
   11ETHO   H1337029  14.644  10.415   6.335
   11ETHO    C237030  14.495  10.291   6.219
   11ETHO   H2137031  14.400  10.244   6.251
   11ETHO   H2337032  14.481  10.364   6.137
   12ETHO    O137033  14.594  10.195   6.175
   12ETHO    C137034  14.549  10.125   6.060
   12ETHO   H1137035  14.543  10.188   5.968
   12ETHO   H1337036  14.447  10.092   6.088
   12ETHO    C237037  14.647  10.007   6.036
   12ETHO   H2137038  14.574   9.937   5.989
   12ETHO   H2337039  14.676   9.966   6.135
   13ETHO    O137040  14.756  10.035   5.958
   13ETHO    C137041  14.852  10.124   6.011
   13ETHO   H1137042  14.819  10.229   5.995
   13ETHO   H1337043  14.872  10.109   6.119
   13ETHO    C237044  14.984  10.102   5.944
   13ETHO   H2137045  15.039  10.186   5.991
   13ETHO   H2337046  14.978  10.102   5.833
   14ETHO    O137047  15.055   9.983   5.988
   14ETHO    C137048  15.160   9.942   5.897
   14ETHO   H1137049  15.227  10.027   5.872
   14ETHO   H1337050  15.105   9.914   5.805
   14ETHO    C237051  15.243   9.819   5.956
   14ETHO   H2137052  15.313   9.772   5.883
   14ETHO   H2337053  15.163   9.748   5.985
   15ETHO    O137054  15.307   9.854   6.078
   15ETHO    C137055  15.387   9.741   6.127
   15ETHO   H1137056  15.329   9.647   6.129
   15ETHO   H1337057  15.455   9.738   6.039
   15ETHO    C237058  15.464   9.759   6.257
   15ETHO   H2137059  15.398   9.800   6.336
   15ETHO   H2337060  15.490   9.653   6.282
   16ETHO    O137061  15.587   9.833   6.236
   16ETHO    C137062  15.653   9.839   6.368
   16ETHO   H1137063  15.597   9.906   6.436
   16ETHO   H1337064  15.653   9.738   6.415
   16ETHO    C237065  15.803   9.897   6.364
   16ETHO   H2137066  15.849   9.839   6.281
   16ETHO   H2337067  15.853   9.884   6.462
   17ETHO    O137068  15.789  10.031   6.330
   17ETHO    C137069  15.911  10.089   6.277
   17ETHO   H1137070  15.984  10.006   6.274
   17ETHO   H1337071  15.894  10.118   6.171
   17ETHO    C237072  15.977  10.202   6.361
   17ETHO   H2137073  16.049  10.167   6.438
   17ETHO   H2337074  15.893  10.258   6.407
   18ETHO    O137075  16.044  10.291   6.266
   18ETHO    C137076  16.100  10.405   6.326
   18ETHO   H1137077  16.029  10.450   6.399
   18ETHO   H1337078  16.179  10.362   6.392
   18ETHO    C237079  16.155  10.505   6.214
   18ETHO   H2137080  16.201  10.443   6.134
   18ETHO   H2337081  16.232  10.572   6.258
   19ETHO    O137082  16.052  10.587   6.155
   19ETHO    C137083  16.112  10.699   6.080
   19ETHO   H1137084  16.177  10.664   5.997
   19ETHO   H1337085  16.168  10.767   6.148
   19ETHO    C237086  15.995  10.790   6.029
   19ETHO   H2137087  16.044  10.858   5.956
   19ETHO   H2337088  15.950  10.849   6.112
   20ETHO    O137089  15.905  10.705   5.957
   20ETHO    C137090  15.775  10.717   6.008
   20ETHO   H1137091  15.770  10.646   6.093
   20ETHO   H1337092  15.757  10.820   6.045
   20ETHO    C237093  15.671  10.669   5.907
   20ETHO   H2137094  15.581  10.627   5.958
   20ETHO   H2337095  15.715  10.589   5.845
   21ETHO    O137096  15.635  10.779   5.824
   21ETHO    C137097  15.740  10.824   5.730
   21ETHO   H1137098  15.748  10.738   5.660
   21ETHO   H1337099  15.836  10.850   5.780
   21ETHO    C237100  15.708  10.954   5.662
   21ETHO   H2137101  15.801  10.982   5.607
   21ETHO   H2337102  15.667  11.034   5.728
   22ETHO    O137103  15.612  10.932   5.562
   22ETHO    C137104  15.591  11.049   5.483
   22ETHO   H1137105  15.635  11.135   5.538
   22ETHO   H1337106  15.660  11.043   5.397
   22ETHO    C237107  15.454  11.071   5.419
   22ETHO   H2137108  15.461  11.156   5.348
   22ETHO   H2337109  15.436  10.982   5.356
   23ETHO    O137110  15.340  11.093   5.505
   23ETHO    C137111  15.214  11.117   5.447
   23ETHO   H1137112  15.197  11.034   5.375
   23ETHO   H1337113  15.225  11.196   5.370
   23ETHO    C237114  15.099  11.129   5.558
   23ETHO   H2137115  15.111  11.040   5.624
   23ETHO   H2337116  15.000  11.135   5.509
   24ETHO    O137117  15.122  11.242   5.639
   24ETHO    C137118  15.033  11.252   5.748
   24ETHO   H1137119  14.929  11.244   5.712
   24ETHO   H1337120  15.057  11.180   5.829
   24ETHO    C237121  15.051  11.390   5.815
   24ETHO   H2137122  15.144  11.393   5.875
   24ETHO   H2337123  14.968  11.402   5.889
   25ETHO    O137124  15.049  11.492   5.712
   25ETHO    C137125  15.142  11.597   5.737
   25ETHO   H1137126  15.239  11.548   5.763
   25ETHO   H1337127  15.117  11.657   5.827
   25ETHO    C237128  15.158  11.686   5.616
   25ETHO   H2137129  15.200  11.783   5.651
   25ETHO   H2337130  15.063  11.697   5.561
   26ETHO    O137131  15.242  11.638   5.516
   26ETHO    C137132  15.226  11.727   5.401
   26ETHO   H1137133  15.123  11.747   5.367
   26ETHO   H1337134  15.255  11.830   5.429
   26ETHO    C237135  15.316  11.669   5.289
   26ETHO   H2137136  15.272  11.571   5.262
   26ETHO   H2337137  15.412  11.667   5.346
   27ETHO    O137138  15.312  11.750   5.176
   27ETHO    C137139  15.396  11.700   5.069
   27ETHO   H1137140  15.361  11.599   5.039
   27ETHO   H1337141  15.501  11.698   5.104
   27ETHO    C237142  15.413  11.788   4.941
   27ETHO   H2137143  15.491  11.747   4.873
   27ETHO   H2337144  15.447  11.889   4.974
   28ETHO    O137145  15.294  11.796   4.867
   28ETHO    C137146  15.308  11.865   4.741
   28ETHO   H1137147  15.347  11.967   4.764
   28ETHO   H1337148  15.393  11.812   4.694
   28ETHO    C237149  15.176  11.866   4.659
   28ETHO   H2137150  15.197  11.943   4.582
   28ETHO   H2337151  15.091  11.895   4.724
   29ETHO    O137152  15.150  11.737   4.607
   29ETHO    C137153  15.040  11.727   4.513
   29ETHO   H1137154  15.043  11.806   4.434
   29ETHO   H1337155  14.948  11.739   4.573
   29ETHO    C237156  15.043  11.595   4.445
   29ETHO   H2137157  14.942  11.579   4.400
   29ETHO   H2337158  15.063  11.502   4.501
   30ETHO    O137159  15.135  11.602   4.330
   30ETHO    C137160  15.102  11.520   4.224
   30ETHO   H1137161  15.070  11.423   4.268
   30ETHO   H1337162  15.012  11.565   4.177
   30ETHO    C237163  15.201  11.502   4.111
   30ETHO   H2137164  15.170  11.434   4.029
   30ETHO   H2337165  15.294  11.464   4.158
   31ETHO    O137166  15.217  11.627   4.054
   31ETHO    C137167  15.292  11.624   3.936
   31ETHO   H1137168  15.360  11.537   3.942
   31ETHO   H1337169  15.225  11.607   3.849
   31ETHO    C237170  15.366  11.753   3.904
   31ETHO   H2137171  15.324  11.855   3.913
   31ETHO   H2337172  15.398  11.745   3.798
   32ETHO    O137173  15.475  11.743   3.989
   32ETHO    C137174  15.575  11.840   3.958
   32ETHO   H1137175  15.599  11.848   3.850
   32ETHO   H1337176  15.544  11.935   4.006
   32ETHO    C237177  15.706  11.801   4.033
   32ETHO   H2137178  15.719  11.695   4.002
   32ETHO   H2337179  15.686  11.808   4.142
   33ETHO    O137180  15.803  11.899   3.986
   33ETHO    C137181  15.933  11.832   3.967
   33ETHO   H1137182  15.953  11.761   4.050
   33ETHO   H1337183  15.922  11.774   3.873
   33ETHO    C237184  16.054  11.926   3.957
   33ETHO   H2137185  16.021  11.988   3.872
   33ETHO   H2337186  16.141  11.866   3.920
   34ETHO    O137187  16.067  12.010   4.070
   34ETHO    C137188  16.130  11.942   4.183
   34ETHO   H1137189  16.153  11.834   4.167
   34ETHO   H1337190  16.044  11.932   4.253
   34ETHO    C237191  16.253  12.019   4.244
   34ETHO   H2137192  16.339  12.037   4.176
   34ETHO   H2337193  16.294  11.963   4.331
   35ETHO    O137194  16.210  12.154   4.279
   35ETHO    C137195  16.313  12.231   4.321
   35ETHO   H1137196  16.346  12.186   4.417
   35ETHO   H1337197  16.393  12.238   4.244
   35ETHO    C237198  16.260  12.372   4.358
   35ETHO   H2137199  16.206  12.412   4.270
   35ETHO   H2337200  16.348  12.438   4.370
   36ETHO    O137201  16.184  12.387   4.481
   36ETHO    C137202  16.131  12.521   4.486
   36ETHO   H1137203  16.160  12.580   4.396
   36ETHO   H1337204  16.186  12.579   4.564
   36ETHO    C237205  15.987  12.550   4.519
   36ETHO   H2137206  15.929  12.472   4.465
   36ETHO   H2337207  15.953  12.654   4.500
   37ETHO    O137208  15.968  12.531   4.659
   37ETHO    C137209  15.853  12.608   4.702
   37ETHO   H1137210  15.884  12.714   4.713
   37ETHO   H1337211  15.767  12.605   4.632
   37ETHO    C237212  15.805  12.547   4.836
   37ETHO   H2137213  15.735  12.619   4.884
   37ETHO   H2337214  15.893  12.530   4.901
   38ETHO    O137215  15.731  12.435   4.801
   38ETHO    C137216  15.622  12.422   4.890
   38ETHO   H1137217  15.559  12.513   4.877
   38ETHO   H1337218  15.659  12.417   4.995
   38ETHO    C237219  15.532  12.302   4.842
   38ETHO   H2137220  15.520  12.313   4.733
   38ETHO   H2337221  15.431  12.314   4.888
   39ETHO    O137222  15.577  12.178   4.881
   39ETHO    C137223  15.704  12.146   4.833
   39ETHO   H1137224  15.718  12.175   4.726
   39ETHO   H1337225  15.770  12.206   4.899
   39ETHO    C237226  15.754  12.000   4.847
   39ETHO   H2137227  15.861  11.993   4.819
   39ETHO   H2337228  15.686  11.942   4.781
   40ETHO    O137229  15.731  11.950   4.980
   40ETHO    C137230  15.828  11.857   5.024
   40ETHO   H1137231  15.924  11.913   5.034
   40ETHO   H1337232  15.832  11.775   4.949
   40ETHO    C237233  15.795  11.805   5.162
   40ETHO   H2137234  15.858  11.717   5.189
   40ETHO   H2337235  15.691  11.773   5.180
   41ETHO    O137236  15.831  11.901   5.261
   41ETHO    C137237  15.745  11.905   5.377
   41ETHO   H1137238  15.636  11.925   5.366
   41ETHO   H1337239  15.738  11.803   5.420
   41ETHO    C237240  15.805  12.010   5.471
   41ETHO   H2137241  15.795  12.109   5.420
   41ETHO   H2337242  15.912  11.990   5.495
   42ETHO    O137243  15.731  12.025   5.589
   42ETHO    C137244  15.780  11.938   5.691
   42ETHO   H1137245  15.886  11.951   5.720
   42ETHO   H1337246  15.724  11.989   5.773
   42ETHO    C237247  15.746  11.792   5.691
   42ETHO   H2137248  15.819  11.740   5.625
   42ETHO   H2337249  15.640  11.780   5.659
   43ETHO    O137250  15.774  11.747   5.823
   43ETHO    C137251  15.772  11.602   5.828
   43ETHO   H1137252  15.743  11.575   5.932
   43ETHO   H1337253  15.686  11.570   5.765
   43ETHO    C237254  15.906  11.537   5.785
   43ETHO   H2137255  15.936  11.586   5.690
   43ETHO   H2337256  15.889  11.427   5.779
   44ETHO    O137257  15.999  11.562   5.886
   44ETHO    C137258  16.136  11.527   5.846
   44ETHO   H1137259  16.140  11.422   5.811
   44ETHO   H1337260  16.165  11.593   5.762
   44ETHO    C237261  16.242  11.529   5.954
   44ETHO   H2137262  16.329  11.470   5.918
   44ETHO   H2337263  16.211  11.489   6.053
   45ETHO    O137264  16.282  11.665   5.974
   45ETHO    C137265  16.419  11.674   6.027
   45ETHO   H1137266  16.489  11.631   5.952
   45ETHO   H1337267  16.414  11.618   6.123
   45ETHO    C237268  16.455  11.818   6.061
   45ETHO   H2137269  16.451  11.881   5.970
   45ETHO   H2337270  16.562  11.825   6.090
   46ETHO    O137271  16.375  11.887   6.158
   46ETHO    C137272  16.414  12.024   6.162
   46ETHO   H1137273  16.429  12.048   6.269
   46ETHO   H1337274  16.512  12.034   6.112
   46ETHO    C237275  16.308  12.124   6.108
   46ETHO   H2137276  16.344  12.226   6.132
   46ETHO   H2337277  16.216  12.100   6.167
   47ETHO    O137278  16.273  12.123   5.971
   47ETHO    C137279  16.385  12.180   5.899
   47ETHO   H1137280  16.458  12.096   5.894
   47ETHO   H1337281  16.423  12.274   5.945
   47ETHO    C237282  16.347  12.226   5.760
   47ETHO   H2137283  16.439  12.282   5.735
   47ETHO   H2337284  16.274  12.309   5.749
   48ETHO    O137285  16.330  12.117   5.673
   48ETHO    C137286  16.197  12.062   5.671
   48ETHO   H1137287  16.170  12.038   5.776
   48ETHO   H1337288  16.119  12.127   5.628
   48ETHO    C237289  16.203  11.919   5.612
   48ETHO   H2137290  16.292  11.854   5.626
   48ETHO   H2337291  16.114  11.854   5.622
   49ETHO    O137292  16.213  11.955   5.476
   49ETHO    C137293  16.168  11.847   5.393
   49ETHO   H1137294  16.065  11.824   5.429
   49ETHO   H1337295  16.235  11.760   5.412
   49ETHO    C237296  16.161  11.887   5.253
   49ETHO   H2137297  16.096  11.977   5.245
   49ETHO   H2337298  16.121  11.805   5.191
   50ETHO    O137299  16.287  11.920   5.199
   50ETHO    C137300  16.366  11.807   5.160
   50ETHO   H1137301  16.371  11.729   5.238
   50ETHO   H1337302  16.322  11.745   5.079
   50ETHO    C237303  16.508  11.850   5.126
   50ETHO   H2137304  16.498  11.937   5.057
   50ETHO   H2337305  16.563  11.760   5.092
   51ETHO    O137306  16.568  11.905   5.245
   51ETHO    C137307  16.696  11.954   5.222
   51ETHO   H1137308  16.697  12.037   5.296
   51ETHO   H1337309  16.696  12.010   5.127
   51ETHO    C237310  16.806  11.852   5.239
   51ETHO   H2137311  16.767  11.800   5.330
   51ETHO   H2337312  16.896  11.916   5.253
   52ETHO    O137313  16.823  11.764   5.127
   52ETHO    C137314  16.934  11.673   5.139
   52ETHO   H1137315  16.935  11.632   5.243
   52ETHO   H1337316  16.903  11.589   5.074
   52ETHO    C237317  17.062  11.744   5.107
   52ETHO   H2137318  17.142  11.667   5.104
   52ETHO   H2337319  17.101  11.820   5.178
   53ETHO    O137320  17.060  11.811   4.975
   53ETHO    C137321  17.079  11.956   4.995
   53ETHO   H1137322  16.992  11.989   5.056
   53ETHO   H1337323  17.166  11.965   5.065
   53ETHO    C237324  17.095  12.040   4.870
   53ETHO   H2137325  17.183  11.999   4.816
   53ETHO   H2337326  17.115  12.145   4.901
   54ETHO    O137327  16.975  12.027   4.790
   54ETHO    C137328  16.888  12.141   4.797
   54ETHO   H1137329  16.855  12.175   4.897
   54ETHO   H1337330  16.940  12.228   4.751
   54ETHO    C237331  16.752  12.117   4.731
   54ETHO   H2137332  16.708  12.219   4.728
   54ETHO   H2337333  16.686  12.065   4.804
   55ETHO    O137334  16.760  12.045   4.607
   55ETHO    C137335  16.654  12.082   4.517
   55ETHO   H1137336  16.555  12.087   4.567
   55ETHO   H1337337  16.686  12.183   4.484
   55ETHO    C237338  16.654  11.993   4.389
   55ETHO   H2137339  16.612  12.052   4.305
   55ETHO   H2337340  16.758  11.959   4.372
   56ETHO    O137341  16.567  11.877   4.404
   56ETHO    C137342  16.560  11.806   4.285
   56ETHO   H1137343  16.522  11.872   4.204
   56ETHO   H1337344  16.490  11.720   4.298
   56ETHO    C237345  16.674  11.725   4.228
   56ETHO   H2137346  16.715  11.647   4.296
   56ETHO   H2337347  16.759  11.789   4.197
   57ETHO    O137348  16.631  11.649   4.121
   57ETHO    C137349  16.679  11.705   3.998
   57ETHO   H1137350  16.666  11.816   3.995
   57ETHO   H1337351  16.788  11.687   3.989
   57ETHO    C237352  16.613  11.649   3.872
   57ETHO   H2137353  16.676  11.670   3.783
   57ETHO   H2337354  16.510  11.687   3.855
   58ETHO    O137355  16.599  11.507   3.869
   58ETHO    C137356  16.556  11.458   3.747
   58ETHO   H1137357  16.528  11.541   3.679
   58ETHO   H1337358  16.470  11.389   3.755
   58ETHO    C237359  16.654  11.367   3.668
   58ETHO   H2137360  16.672  11.273   3.724
   58ETHO   H2337361  16.751  11.420   3.658
   59ETHO    O137362  16.610  11.339   3.530
   59ETHO    C137363  16.711  11.264   3.462
   59ETHO   H1137364  16.805  11.322   3.471
   59ETHO   H1337365  16.728  11.166   3.512
   59ETHO    C237366  16.667  11.250   3.317
   59ETHO   H2137367  16.737  11.198   3.249
   59ETHO   H2337368  16.652  11.354   3.282
   60ETHO    O137369  16.536  11.189   3.307
   60ETHO    C137370  16.500  11.172   3.173
   60ETHO   H1137371  16.507  11.268   3.117
   60ETHO   H1337372  16.392  11.144   3.166
   60ETHO    C237373  16.578  11.068   3.090
   60ETHO   H2137374  16.513  11.007   3.024
   60ETHO   H2337375  16.623  10.996   3.162
   61ETHO    O137376  16.672  11.127   3.003
   61ETHO    C137377  16.773  11.027   2.982
   61ETHO   H1137378  16.845  11.041   3.066
   61ETHO   H1337379  16.734  10.923   2.989
   61ETHO    C237380  16.838  11.045   2.841
   61ETHO   H2137381  16.939  11.001   2.852
   61ETHO   H2337382  16.847  11.155   2.830
   62ETHO    O137383  16.753  10.990   2.745
   62ETHO    C137384  16.775  10.850   2.719
   62ETHO   H1137385  16.718  10.781   2.785
   62ETHO   H1337386  16.883  10.833   2.739
   62ETHO    C237387  16.745  10.811   2.569
   62ETHO   H2137388  16.744  10.908   2.515
   62ETHO   H2337389  16.646  10.761   2.575
   63ETHO    O137390  16.843  10.738   2.515
   63ETHO    C137391  16.819  10.720   2.373
   63ETHO   H1137392  16.728  10.663   2.347
   63ETHO   H1337393  16.804  10.822   2.333
   63ETHO    C237394  16.925  10.665   2.280
   63ETHO   H2137395  16.890  10.658   2.175
   63ETHO   H2337396  16.951  10.561   2.311
   64ETHO    O137397  17.043  10.745   2.286
   64ETHO    C137398  17.150  10.697   2.200
   64ETHO   H1137399  17.113  10.682   2.096
   64ETHO   H1337400  17.171  10.596   2.241
   64ETHO    C237401  17.271  10.793   2.212
   64ETHO   H2137402  17.238  10.899   2.210
   64ETHO   H2337403  17.343  10.769   2.131
   65ETHO    O137404  17.321  10.765   2.340
   65ETHO    C137405  17.416  10.864   2.378
   65ETHO   H1137406  17.399  10.960   2.326
   65ETHO   H1337407  17.419  10.878   2.488
   65ETHO    C237408  17.556  10.818   2.345
   65ETHO   H2137409  17.562  10.852   2.239
   65ETHO   H2337410  17.575  10.709   2.352
   66ETHO    O137411  17.661  10.894   2.412
   66ETHO    C137412  17.777  10.892   2.335
   66ETHO   H1137413  17.763  10.947   2.240
   66ETHO   H1337414  17.810  10.790   2.305
   66ETHO    C237415  17.896  10.962   2.414
   66ETHO   H2137416  17.871  11.061   2.457
   66ETHO   H2337417  17.974  10.992   2.340
   67ETHO    O137418  17.955  10.881   2.509
   67ETHO    C137419  18.064  10.955   2.570
   67ETHO   H1137420  18.127  11.008   2.495
   67ETHO   H1337421  18.021  11.038   2.630
   67ETHO    C237422  18.151  10.861   2.654
   67ETHO   H2137423  18.088  10.818   2.734
   67ETHO   H2337424  18.226  10.923   2.707
   68ETHO    O137425  18.234  10.767   2.581
   68ETHO    C137426  18.179  10.655   2.518
   68ETHO   H1137427  18.122  10.592   2.589
   68ETHO   H1337428  18.110  10.696   2.440
   68ETHO    C237429  18.282  10.567   2.450
   68ETHO   H2137430  18.352  10.639   2.403
   68ETHO   H2337431  18.228  10.499   2.381
   69ETHO    O137432  18.339  10.488   2.555
   69ETHO    C137433  18.425  10.392   2.506
   69ETHO   H1137434  18.370  10.328   2.435
   69ETHO   H1337435  18.512  10.449   2.467
   69ETHO    C237436  18.475  10.286   2.617
   69ETHO   H2137437  18.492  10.187   2.568
   69ETHO   H2337438  18.391  10.270   2.688
   70ETHO    O137439  18.595  10.330   2.688
   70ETHO    C137440  18.678  10.233   2.745
   70ETHO   H1137441  18.721  10.178   2.659
   70ETHO   H1337442  18.764  10.283   2.795
   70ETHO    C237443  18.612  10.154   2.855
   70ETHO   H2137444  18.583  10.222   2.939
   70ETHO   H2337445  18.694  10.091   2.894
   71ETHO    O137446  18.504  10.065   2.801
   71ETHO    C137447  18.475   9.951   2.885
   71ETHO   H1137448  18.568   9.909   2.929
   71ETHO   H1337449  18.434   9.870   2.821
   71ETHO    C237450  18.378   9.983   2.997
   71ETHO   H2137451  18.335   9.887   3.030
   71ETHO   H2337452  18.303  10.054   2.955
   72ETHO    O137453  18.445  10.048   3.109
   72ETHO    C137454  18.358  10.083   3.215
   72ETHO   H1137455  18.286  10.161   3.182
   72ETHO   H1337456  18.319   9.984   3.248
   72ETHO    C237457  18.406  10.137   3.355
   72ETHO   H2137458  18.463  10.061   3.413
   72ETHO   H2337459  18.312  10.165   3.407
   73ETHO    O137460  18.477  10.261   3.346
   73ETHO    C137461  18.544  10.288   3.468
   73ETHO   H1137462  18.619  10.209   3.490
   73ETHO   H1337463  18.473  10.282   3.553
   73ETHO    C237464  18.619  10.418   3.469
   73ETHO   H2137465  18.686  10.415   3.380
   73ETHO   H2337466  18.685  10.422   3.558
   74ETHO    O137467  18.550  10.542   3.489
   74ETHO    C137468  18.492  10.609   3.372
   74ETHO   H1137469  18.579  10.635   3.308
   74ETHO   H1337470  18.423  10.539   3.321
   74ETHO    C237471  18.427  10.744   3.412
   74ETHO   H2137472  18.418  10.811   3.323
   74ETHO   H2337473  18.491  10.792   3.489
   75ETHO    O137474  18.300  10.722   3.468
   75ETHO    C137475  18.244  10.835   3.530
   75ETHO   H1137476  18.231  10.920   3.459
   75ETHO   H1337477  18.309  10.867   3.614
   75ETHO    C237478  18.108  10.800   3.589
   75ETHO   H2137479  18.101  10.697   3.633
   75ETHO   H2337480  18.027  10.817   3.515
   76ETHO    O137481  18.086  10.899   3.694
   76ETHO    C137482  17.950  10.955   3.708
   76ETHO   H1137483  17.928  11.025   3.624
   76ETHO   H1337484  17.870  10.879   3.721
   76ETHO    C237485  17.947  11.034   3.839
   76ETHO   H2137486  17.845  11.074   3.854
   76ETHO   H2337487  18.019  11.118   3.828
   77ETHO    O137488  17.967  10.953   3.958
   77ETHO    C137489  17.922  11.016   4.086
   77ETHO   H1137490  17.814  11.041   4.079
   77ETHO   H1337491  17.982  11.109   4.099
   77ETHO    C237492  17.955  10.921   4.200
   77ETHO   H2137493  17.922  10.963   4.298
   77ETHO   H2337494  18.063  10.897   4.208
   78ETHO    O137495  17.884  10.795   4.187
   78ETHO    C137496  17.908  10.707   4.298
   78ETHO   H1137497  17.846  10.615   4.292
   78ETHO   H1337498  18.007  10.659   4.285
   78ETHO    C237499  17.880  10.755   4.444
   78ETHO   H2137500  17.936  10.844   4.477
   78ETHO   H2337501  17.924  10.680   4.512
   79ETHO    O137502  17.743  10.762   4.495
   79ETHO    C137503  17.684  10.884   4.452
   79ETHO   H1137504  17.751  10.968   4.482
   79ETHO   H1337505  17.661  10.890   4.343
   79ETHO    C237506  17.559  10.905   4.540
   79ETHO   H2137507  17.540  11.014   4.551
   79ETHO   H2337508  17.580  10.864   4.642
   80ETHO    O137509  17.441  10.835   4.492
   80ETHO    C137510  17.329  10.921   4.498
   80ETHO   H1137511  17.301  10.953   4.601
   80ETHO   H1337512  17.341  11.014   4.439
   80ETHO    C237513  17.201  10.847   4.437
   80ETHO   H2137514  17.232  10.790   4.347
   80ETHO   H2337515  17.127  10.921   4.401
   81ETHO    O137516  17.142  10.764   4.532
   81ETHO    C137517  17.013  10.716   4.487
   81ETHO   H1137518  16.950  10.806   4.505
   81ETHO   H1337519  17.008  10.690   4.379
   81ETHO    C237520  16.949  10.597   4.566
   81ETHO   H2137521  16.858  10.567   4.509
   81ETHO   H2337522  17.025  10.517   4.578
   82ETHO    O137523  16.909  10.638   4.696
   82ETHO    C137524  16.852  10.529   4.767
   82ETHO   H1137525  16.934  10.479   4.824
   82ETHO   H1337526  16.814  10.456   4.693
   82ETHO    C237527  16.741  10.554   4.863
   82ETHO   H2137528  16.769  10.635   4.934
   82ETHO   H2337529  16.725  10.461   4.921
   83ETHO    O137530  16.629  10.591   4.787
   83ETHO    C137531  16.510  10.606   4.867
   83ETHO   H1137532  16.462  10.511   4.900
   83ETHO   H1337533  16.532  10.663   4.960
   83ETHO    C237534  16.401  10.687   4.792
   83ETHO   H2137535  16.303  10.669   4.842
   83ETHO   H2337536  16.392  10.643   4.691
   84ETHO    O137537  16.435  10.827   4.793
   84ETHO    C137538  16.349  10.892   4.698
   84ETHO   H1137539  16.248  10.845   4.697
   84ETHO   H1337540  16.404  10.878   4.603
   84ETHO    C237541  16.337  11.037   4.742
   84ETHO   H2137542  16.295  11.102   4.662
   84ETHO   H2337543  16.440  11.073   4.762
   85ETHO    O137544  16.265  11.046   4.863
   85ETHO    C137545  16.302  11.168   4.926
   85ETHO   H1137546  16.412  11.168   4.946
   85ETHO   H1337547  16.267  11.255   4.866
   85ETHO    C237548  16.219  11.184   5.060
   85ETHO   H2137549  16.115  11.146   5.058
   85ETHO   H2337550  16.209  11.290   5.092
   86ETHO    O137551  16.289  11.122   5.172
   86ETHO    C137552  16.388  11.209   5.234
   86ETHO   H1137553  16.348  11.294   5.293
   86ETHO   H1337554  16.462  11.261   5.169
   86ETHO    C237555  16.466  11.110   5.320
   86ETHO   H2137556  16.547  11.166   5.371
   86ETHO   H2337557  16.514  11.031   5.259
   87ETHO    O137558  16.386  11.047   5.427
   87ETHO    C137559  16.450  10.940   5.490
   87ETHO   H1137560  16.465  10.866   5.409
   87ETHO   H1337561  16.552  10.966   5.526
   87ETHO    C237562  16.373  10.874   5.607
   87ETHO   H2137563  16.449  10.815   5.663
   87ETHO   H2337564  16.292  10.820   5.555
   88ETHO    O137565  16.331  10.986   5.691
   88ETHO    C137566  16.354  10.944   5.824
   88ETHO   H1137567  16.459  10.913   5.841
   88ETHO   H1337568  16.284  10.859   5.839
   88ETHO    C237569  16.299  11.047   5.922
   88ETHO   H2137570  16.364  11.134   5.899
   88ETHO   H2337571  16.327  11.024   6.027
   89ETHO    O137572  16.163  11.066   5.905
   89ETHO    C137573  16.109  11.138   6.015
   89ETHO   H1137574  16.124  11.073   6.105
   89ETHO   H1337575  16.173  11.227   6.032
   89ETHO    C237576  15.959  11.179   6.015
   89ETHO   H2137577  15.901  11.092   5.977
   89ETHO   H2337578  15.930  11.257   5.940
   90ETHO    O137579  15.923  11.222   6.149
   90ETHO    C137580  15.873  11.359   6.145
   90ETHO   H1137581  15.951  11.434   6.117
   90ETHO   H1337582  15.800  11.369   6.063
   90ETHO    C237583  15.792  11.379   6.280
   90ETHO   H2137584  15.715  11.299   6.289
   90ETHO   H2337585  15.753  11.483   6.278
   91ETHO    O137586  15.871  11.373   6.397
   91ETHO    C137587  15.960  11.482   6.403
   91ETHO   H1137588  16.040  11.473   6.326
   91ETHO   H1337589  15.898  11.571   6.383
   91ETHO    C237590  16.034  11.495   6.537
   91ETHO   H2137591  16.115  11.571   6.529
   91ETHO   H2337592  16.093  11.402   6.550
   92ETHO    O137593  15.951  11.530   6.650
   92ETHO    C137594  16.025  11.542   6.766
   92ETHO   H1137595  16.061  11.439   6.790
   92ETHO   H1337596  16.108  11.616   6.771
   92ETHO    C237597  15.930  11.569   6.884
   92ETHO   H2137598  15.834  11.514   6.871
   92ETHO   H2337599  15.904  11.677   6.897
   93ETHO    O137600  15.996  11.503   6.999
   93ETHO    C137601  15.896  11.503   7.105
   93ETHO   H1137602  15.816  11.431   7.079
   93ETHO   H1337603  15.857  11.607   7.109
   93ETHO    C237604  15.947  11.459   7.240
   93ETHO   H2137605  16.058  11.461   7.243
   93ETHO   H2337606  15.929  11.350   7.253
   94ETHO    O137607  15.901  11.533   7.354
   94ETHO    C137608  15.928  11.462   7.471
   94ETHO   H1137609  15.837  11.400   7.490
   94ETHO   H1337610  16.016  11.399   7.449
   94ETHO    C237611  15.943  11.550   7.601
   94ETHO   H2137612  16.012  11.633   7.576
   94ETHO   H2337613  15.998  11.492   7.678
   95ETHO    O137614  15.822  11.612   7.643
   95ETHO    C137615  15.752  11.512   7.727
   95ETHO   H1137616  15.819  11.481   7.811
   95ETHO   H1337617  15.736  11.417   7.672
   95ETHO    C237618  15.618  11.563   7.767
   95ETHO   H2137619  15.549  11.480   7.793
   95ETHO   H2337620  15.567  11.620   7.687
   96ETHO    O137621  15.628  11.649   7.887
   96ETHO    C137622  15.499  11.700   7.917
   96ETHO   H1137623  15.436  11.724   7.829
   96ETHO   H1337624  15.448  11.618   7.972
   96ETHO    C237625  15.504  11.827   8.003
   96ETHO   H2137626  15.563  11.802   8.094
   96ETHO   H2337627  15.401  11.839   8.042
   97ETHO    O137628  15.549  11.944   7.937
   97ETHO    C137629  15.456  12.058   7.949
   97ETHO   H1137630  15.350  12.045   7.919
   97ETHO   H1337631  15.486  12.139   7.879
   97ETHO    C237632  15.463  12.124   8.090
   97ETHO   H2137633  15.411  12.221   8.078
   97ETHO   H2337634  15.567  12.134   8.128
   98ETHO    O137635  15.383  12.041   8.182
   98ETHO    C137636  15.423  12.072   8.319
   98ETHO   H1137637  15.529  12.047   8.340
   98ETHO   H1337638  15.419  12.181   8.336
   98ETHO    C237639  15.330  12.018   8.431
   98ETHO   H2137640  15.377  12.041   8.529
   98ETHO   H2337641  15.332  11.908   8.415
   99ETHO    O137642  15.195  12.072   8.417
   99ETHO    C137643  15.101  12.009   8.502
   99ETHO   H1137644  15.007  12.067   8.493
   99ETHO   H1337645  15.133  12.013   8.609
   99ETHO    C237646  15.062  11.864   8.465
   99ETHO   H2137647  15.084  11.861   8.356
   99ETHO   H2337648  14.954  11.840   8.469
  100ETHO    O137649  15.151  11.783   8.550
  100ETHO    C137650  15.067  11.706   8.629
  100ETHO   H1137651  14.989  11.760   8.686
  100ETHO   H1337652  15.010  11.636   8.564
  100ETHO    C237653  15.149  11.623   8.725
  100ETHO   H2137654  15.257  11.615   8.704
  100ETHO   H2337655  15.101  11.523   8.727
  101PROX    O137656  15.139  11.690   8.855
  101PROX    C137657  15.211  11.617   8.960
  101PROX   H1137658  15.165  11.516   8.965
  101PROX   H1337659  15.316  11.595   8.933
  101PROX    C237660  15.208  11.684   9.091
  101PROX   H2137661  15.100  11.696   9.113
  101PROX    C337662  15.295  11.810   9.109
  101PROX   H3137663  15.302  11.828   9.219
  101PROX   H3237664  15.393  11.799   9.060
  101PROX   H3337665  15.243  11.894   9.057
  102PROX    O137666  15.266  11.596   9.187
  102PROX    C137667  15.178  11.526   9.267
  102PROX   H1137668  15.101  11.479   9.203
  102PROX   H1337669  15.250  11.456   9.314
  102PROX    C237670  15.122  11.619   9.386
  102PROX   H2137671  15.090  11.719   9.351
  102PROX    C337672  15.213  11.628   9.508
  102PROX   H3137673  15.163  11.674   9.596
  102PROX   H3237674  15.245  11.530   9.548
  102PROX   H3337675  15.306  11.688   9.491
  103PROX    O137676  15.003  11.563   9.436
  103PROX    C137677  14.895  11.584   9.339
  103PROX   H1137678  14.878  11.694   9.348
  103PROX   H1337679  14.927  11.566   9.235
  103PROX    C237680  14.770  11.495   9.374
  103PROX   H2137681  14.750  11.525   9.479
  103PROX    C337682  14.808  11.340   9.374
  103PROX   H3137683  14.711  11.287   9.365
  103PROX   H3237684  14.869  11.329   9.282
  103PROX   H3337685  14.861  11.324   9.470
  104PROX    O137686  14.666  11.527   9.288
  104PROX    C137687  14.584  11.635   9.341
  104PROX   H1137688  14.537  11.579   9.424
  104PROX   H1337689  14.636  11.718   9.393
  104PROX    C237690  14.485  11.691   9.235
  104PROX   H2137691  14.405  11.745   9.290
  104PROX    C337692  14.411  11.575   9.157
  104PROX   H3137693  14.357  11.506   9.226
  104PROX   H3237694  14.338  11.628   9.092
  104PROX   H3337695  14.485  11.516   9.099
  105PROX    O137696  14.554  11.787   9.147
  105PROX    C137697  14.680  11.744   9.094
  105PROX   H1137698  14.768  11.787   9.147
  105PROX   H1337699  14.685  11.633   9.084
  105PROX    C237700  14.671  11.786   8.938
  105PROX   H2137701  14.566  11.768   8.908
  105PROX    C337702  14.754  11.694   8.830
  105PROX   H3137703  14.777  11.742   8.733
  105PROX   H3237704  14.854  11.669   8.872
  105PROX   H3337705  14.698  11.602   8.804
  106PROX    O137706  14.693  11.923   8.923
  106PROX    C137707  14.820  11.966   8.962
  106PROX   H1137708  14.851  11.938   9.065
  106PROX   H1337709  14.894  11.915   8.897
  106PROX    C237710  14.837  12.117   8.924
  106PROX   H2137711  14.764  12.186   8.971
  106PROX    C337712  14.810  12.137   8.770
  106PROX   H3137713  14.850  12.237   8.742
  106PROX   H3237714  14.865  12.069   8.701
  106PROX   H3337715  14.705  12.137   8.735
  107PROX    O137716  14.965  12.165   8.966
  107PROX    C137717  15.082  12.098   8.909
  107PROX   H1137718  15.098  12.011   8.977
  107PROX   H1337719  15.067  12.070   8.803
  107PROX    C237720  15.215  12.182   8.935
  107PROX   H2137721  15.176  12.283   8.911
  107PROX    C337722  15.328  12.149   8.844
  107PROX   H3137723  15.404  12.229   8.846
  107PROX   H3237724  15.374  12.056   8.885
  107PROX   H3337725  15.288  12.139   8.741
  108PROX    O137726  15.247  12.170   9.073
  108PROX    C137727  15.201  12.287   9.146
  108PROX   H1137728  15.262  12.374   9.112
  108PROX   H1337729  15.093  12.310   9.134
  108PROX    C237730  15.228  12.271   9.298
  108PROX   H2137731  15.179  12.174   9.322
  108PROX    C337732  15.160  12.371   9.381
  108PROX   H3137733  15.177  12.479   9.361
  108PROX   H3237734  15.052  12.351   9.367
  108PROX   H3337735  15.179  12.350   9.488
  109PROX    O137736  15.369  12.254   9.318
  109PROX    C137737  15.398  12.147   9.407
  109PROX   H1137738  15.384  12.177   9.513
  109PROX   H1337739  15.335  12.059   9.383
  109PROX    C237740  15.545  12.094   9.398
  109PROX   H2137741  15.612  12.174   9.435
  109PROX    C337742  15.585  12.045   9.252
  109PROX   H3137743  15.505  11.991   9.195
  109PROX   H3237744  15.612  12.138   9.198
  109PROX   H3337745  15.677  11.984   9.261
  110PROX    O137746  15.559  11.983   9.488
  110PROX    C137747  15.566  12.012   9.624
  110PROX   H1137748  15.668  11.975   9.651
  110PROX   H1337749  15.552  12.120   9.644
  110PROX    C237750  15.458  11.943   9.704
  110PROX   H2137751  15.470  11.974   9.810
  110PROX    C337752  15.478  11.790   9.699
  110PROX   H3137753  15.567  11.748   9.751
  110PROX   H3237754  15.384  11.737   9.725
  110PROX   H3337755  15.508  11.764   9.595
  111PROX    O137756  15.336  11.998   9.661
  111PROX    C137757  15.228  11.976   9.751
  111PROX   H1137758  15.205  11.868   9.748
  111PROX   H1337759  15.253  12.017   9.851
  111PROX    C237760  15.104  12.037   9.687
  111PROX   H2137761  15.104  12.008   9.580
  111PROX    C337762  15.098  12.194   9.689
  111PROX   H3137763  15.016  12.239   9.629
  111PROX   H3237764  15.086  12.234   9.792
  111PROX   H3337765  15.194  12.232   9.649
  112PROX    O137766  14.985  11.997   9.763
  112PROX    C137767  14.935  11.869   9.726
  112PROX   H1137768  14.986  11.822   9.639
  112PROX   H1337769  14.957  11.801   9.812
  112PROX    C237770  14.782  11.866   9.702
  112PROX   H2137771  14.727  11.925   9.779
  112PROX    C337772  14.732  11.725   9.731
  112PROX   H3137773  14.785  11.649   9.668
  112PROX   H3237774  14.754  11.712   9.839
  112PROX   H3337775  14.622  11.724   9.717
  113PROX    O137776  14.749  11.908   9.567
  113PROX    C137777  14.747  12.061   9.546
  113PROX   H1137778  14.651  12.105   9.582
  113PROX   H1337779  14.836  12.103   9.597
  113PROX    C237780  14.754  12.083   9.393
  113PROX   H2137781  14.690  12.011   9.337
  113PROX    C337782  14.893  12.069   9.334
  113PROX   H3137783  14.920  11.966   9.365
  113PROX   H3237784  14.906  12.081   9.224
  113PROX   H3337785  14.960  12.146   9.377
  114PROX    O137786  14.721  12.219   9.371
  114PROX    C137787  14.701  12.246   9.229
  114PROX   H1137788  14.753  12.341   9.205
  114PROX   H1337789  14.738  12.167   9.161
  114PROX    C237790  14.552  12.266   9.202
  114PROX   H2137791  14.501  12.279   9.299
  114PROX    C337792  14.499  12.150   9.112
  114PROX   H3137793  14.528  12.053   9.159
  114PROX   H3237794  14.388  12.155   9.110
  114PROX   H3337795  14.530  12.157   9.006
  115PROX    O137796  14.526  12.383   9.127
  115PROX    C137797  14.520  12.498   9.204
  115PROX   H1137798  14.440  12.481   9.280
  115PROX   H1337799  14.619  12.511   9.252
  115PROX    C237800  14.477  12.626   9.122
  115PROX   H2137801  14.402  12.597   9.046
  115PROX    C337802  14.597  12.685   9.040
  115PROX   H3137803  14.677  12.713   9.112
  115PROX   H3237804  14.632  12.601   8.976
  115PROX   H3337805  14.562  12.775   8.985
  116PROX    O137806  14.403  12.721   9.202
  116PROX    C137807  14.476  12.794   9.295
  116PROX   H1137808  14.559  12.734   9.338
  116PROX   H1337809  14.514  12.880   9.237
  116PROX    C237810  14.386  12.844   9.409
  116PROX   H2137811  14.361  12.750   9.463
  116PROX    C337812  14.255  12.913   9.367
  116PROX   H3137813  14.215  12.875   9.271
  116PROX   H3237814  14.184  12.922   9.452
  116PROX   H3337815  14.275  13.018   9.338
  117PROX    O137816  14.449  12.940   9.482
  117PROX    C137817  14.528  12.881   9.581
  117PROX   H1137818  14.553  12.773   9.568
  117PROX   H1337819  14.624  12.936   9.592
  117PROX    C237820  14.458  12.892   9.716
  117PROX   H2137821  14.375  12.818   9.719
  117PROX    C337822  14.406  13.034   9.735
  117PROX   H3137823  14.342  13.071   9.652
  117PROX   H3237824  14.344  13.045   9.826
  117PROX   H3337825  14.498  13.096   9.738
  118PROX    O137826  14.554  12.868   9.817
  118PROX    C137827  14.578  12.724   9.837
  118PROX   H1137828  14.491  12.667   9.874
  118PROX   H1337829  14.596  12.682   9.735
  118PROX    C237830  14.708  12.699   9.923
  118PROX   H2137831  14.692  12.738  10.026
  118PROX    C337832  14.830  12.769   9.855
  118PROX   H3137833  14.928  12.744   9.902
  118PROX   H3237834  14.826  12.747   9.746
  118PROX   H3337835  14.833  12.878   9.873
  119PROX    O137836  14.744  12.563   9.930
  119PROX    C137837  14.688  12.505  10.043
  119PROX   H1137838  14.698  12.562  10.137
  119PROX   H1337839  14.580  12.480  10.029
  119PROX    C237840  14.765  12.371  10.067
  119PROX   H2137841  14.867  12.402  10.097
  119PROX    C337842  14.793  12.282   9.939
  119PROX   H3137843  14.854  12.342   9.867
  119PROX   H3237844  14.855  12.194   9.968
  119PROX   H3337845  14.708  12.229   9.891
  120PROX    O137846  14.712  12.300  10.176
  120PROX    C137847  14.742  12.366  10.306
  120PROX   H1137848  14.834  12.428  10.314
  120PROX   H1337849  14.661  12.427  10.350
  120PROX    C237850  14.760  12.262  10.422
  120PROX   H2137851  14.854  12.203  10.412
  120PROX    C337852  14.637  12.170  10.435
  120PROX   H3137853  14.612  12.116  10.341
  120PROX   H3237854  14.661  12.089  10.508
  120PROX   H3337855  14.557  12.237  10.473
  121PROX    O137856  14.776  12.336  10.542
  121PROX    C137857  14.822  12.266  10.658
  121PROX   H1137858  14.789  12.322  10.749
  121PROX   H1337859  14.776  12.165  10.663
  121PROX    C237860  14.986  12.270  10.662
  121PROX   H2137861  15.014  12.218  10.757
  121PROX    C337862  15.031  12.417  10.675
  121PROX   H3137863  15.134  12.439  10.708
  121PROX   H3237864  15.002  12.468  10.580
  121PROX   H3337865  14.978  12.464  10.761
  122PROX    O137866  15.041  12.209  10.550
  122PROX    C137867  15.179  12.237  10.533
  122PROX   H1137868  15.181  12.316  10.454
  122PROX   H1337869  15.227  12.275  10.625
  122PROX    C237870  15.256  12.116  10.466
  122PROX   H2137871  15.193  12.085  10.380
  122PROX    C337872  15.264  11.991  10.545
  122PROX   H3137873  15.320  11.929  10.472
  122PROX   H3237874  15.313  12.020  10.641
  122PROX   H3337875  15.165  11.943  10.560
  123PROX    O137876  15.392  12.147  10.433
  123PROX    C137877  15.396  12.228  10.313
  123PROX   H1137878  15.339  12.174  10.234
  123PROX   H1337879  15.339  12.322  10.331
  123PROX    C237880  15.541  12.263  10.281
  123PROX   H2137881  15.606  12.173  10.290
  123PROX    C337882  15.590  12.368  10.384
  123PROX   H3137883  15.550  12.338  10.483
  123PROX   H3237884  15.700  12.351  10.395
  123PROX   H3337885  15.554  12.470  10.357
  124PROX    O137886  15.557  12.305  10.146
  124PROX    C137887  15.479  12.412  10.100
  124PROX   H1137888  15.371  12.387  10.103
  124PROX   H1337889  15.494  12.502  10.163
  124PROX    C237890  15.500  12.440   9.952
  124PROX   H2137891  15.499  12.343   9.899
  124PROX    C337892  15.644  12.505   9.938
  124PROX   H3137893  15.701  12.468   9.849
  124PROX   H3237894  15.635  12.615   9.930
  124PROX   H3337895  15.700  12.494  10.033
  125PROX    O137896  15.396  12.524   9.908
  125PROX    C137897  15.366  12.514   9.768
  125PROX   H1137898  15.452  12.528   9.700
  125PROX   H1337899  15.335  12.409   9.744
  125PROX    C237900  15.255  12.611   9.734
  125PROX   H2137901  15.289  12.711   9.768
  125PROX    C337902  15.126  12.576   9.807
  125PROX   H3137903  15.094  12.470   9.801
  125PROX   H3237904  15.144  12.604   9.913
  125PROX   H3337905  15.046  12.642   9.767
  126PROX    O137906  15.229  12.612   9.593
  126PROX    C137907  15.337  12.664   9.517
  126PROX   H1137908  15.422  12.695   9.582
  126PROX   H1337909  15.363  12.573   9.460
  126PROX    C237910  15.298  12.782   9.423
  126PROX   H2137911  15.200  12.762   9.373
  126PROX    C337912  15.414  12.804   9.333
  126PROX   H3137913  15.457  12.707   9.301
  126PROX   H3237914  15.381  12.861   9.243
  126PROX   H3337915  15.493  12.855   9.392
  127PROX    O137916  15.288  12.898   9.493
  127PROX    C137917  15.153  12.915   9.546
  127PROX   H1137918  15.092  12.949   9.459
  127PROX   H1337919  15.105  12.825   9.591
  127PROX    C237920  15.144  13.020   9.657
  127PROX   H2137921  15.196  13.108   9.613
  127PROX    C337922  15.205  12.970   9.789
  127PROX   H3137923  15.309  12.934   9.780
  127PROX   H3237924  15.209  13.058   9.857
  127PROX   H3337925  15.147  12.883   9.825
  128PROX    O137926  15.006  13.061   9.671
  128PROX    C137927  14.977  13.156   9.773
  128PROX   H1137928  15.004  13.112   9.871
  128PROX   H1337929  15.037  13.247   9.749
  128PROX    C237930  14.832  13.204   9.779
  128PROX   H2137931  14.758  13.122   9.787
  128PROX    C337932  14.811  13.294   9.658
  128PROX   H3137933  14.705  13.327   9.652
  128PROX   H3237934  14.867  13.389   9.672
  128PROX   H3337935  14.842  13.246   9.563
  129PROX    O137936  14.815  13.283   9.887
  129PROX    C137937  14.686  13.276   9.945
  129PROX   H1137938  14.664  13.371   9.998
  129PROX   H1337939  14.607  13.265   9.868
  129PROX    C237940  14.660  13.152  10.036
  129PROX   H2137941  14.642  13.068   9.966
  129PROX    C337942  14.518  13.170  10.106
  129PROX   H3137943  14.435  13.213  10.047
  129PROX   H3237944  14.476  13.079  10.154
  129PROX   H3337945  14.545  13.243  10.185
  130PROX    O137946  14.766  13.124  10.125
  130PROX    C137947  14.737  13.007  10.198
  130PROX   H1137948  14.655  13.025  10.271
  130PROX   H1337949  14.706  12.929  10.125
  130PROX    C237950  14.861  12.951  10.271
  130PROX   H2137951  14.877  13.026  10.352
  130PROX    C337952  14.985  12.938  10.189
  130PROX   H3137953  15.005  13.040  10.148
  130PROX   H3237954  15.070  12.903  10.250
  130PROX   H3337955  14.971  12.875  10.099
  131PROX    O137956  14.813  12.831  10.330
  131PROX    C137957  14.779  12.843  10.468
  131PROX   H1137958  14.871  12.852  10.528
  131PROX   H1337959  14.714  12.929  10.493
  131PROX    C237960  14.720  12.714  10.506
  131PROX   H2137961  14.801  12.642  10.480
  131PROX    C337962  14.591  12.684  10.420
  131PROX   H3137963  14.606  12.716  10.314
  131PROX   H3237964  14.557  12.578  10.426
  131PROX   H3337965  14.508  12.752  10.448
  132PROX    O137966  14.683  12.712  10.642
  132PROX    C137967  14.664  12.584  10.695
  132PROX   H1137968  14.589  12.514  10.653
  132PROX   H1337969  14.759  12.529  10.680
  132PROX    C237970  14.629  12.588  10.845
  132PROX   H2137971  14.528  12.636  10.852
  132PROX    C337972  14.729  12.674  10.925
  132PROX   H3137973  14.829  12.628  10.935
  132PROX   H3237974  14.746  12.775  10.882
  132PROX   H3337975  14.690  12.680  11.029
  133PROX    O137976  14.636  12.456  10.883
  133PROX    C137977  14.615  12.429  11.024
  133PROX   H1137978  14.714  12.437  11.073
  133PROX   H1337979  14.537  12.493  11.071
  133PROX    C237980  14.585  12.279  11.049
  133PROX   H2137981  14.542  12.273  11.152
  133PROX    C337982  14.716  12.205  11.035
  133PROX   H3137983  14.754  12.222  10.932
  133PROX   H3237984  14.794  12.249  11.102
  133PROX   H3337985  14.707  12.098  11.062
  134PROX    O137986  14.480  12.224  10.972
  134PROX    C137987  14.364  12.304  10.970
  134PROX   H1137988  14.327  12.312  11.075
  134PROX   H1337989  14.385  12.409  10.938
  134PROX    C237990  14.249  12.247  10.887
  134PROX   H2137991  14.205  12.157  10.935
  134PROX    C337992  14.294  12.236  10.746
  134PROX   H3137993  14.385  12.173  10.749
  134PROX   H3237994  14.218  12.181  10.685
  134PROX   H3337995  14.305  12.334  10.695
  135PROX    O137996  14.155  12.341  10.892
  135PROX    C137997  14.029  12.306  10.834
  135PROX   H1137998  14.035  12.256  10.735
  135PROX   H1337999  13.969  12.246  10.906
  135PROX    C238000  13.955  12.433  10.808
  135PROX   H2138001  13.954  12.500  10.897
  135PROX    C338002  13.807  12.422  10.765
  135PROX   H3138003  13.811  12.366  10.670
  135PROX   H3238004  13.747  12.372  10.845
  135PROX   H3338005  13.766  12.525  10.751
  136PROX    O138006  14.022  12.504  10.708
  136PROX    C138007  14.059  12.640  10.740
  136PROX   H1138008  13.966  12.701  10.740
  136PROX   H1338009  14.116  12.635  10.835
  136PROX    C238010  14.156  12.690  10.636
  136PROX   H2138011  14.109  12.655  10.542
  136PROX    C338012  14.304  12.636  10.638
  136PROX   H3138013  14.314  12.531  10.671
  136PROX   H3238014  14.338  12.655  10.533
  136PROX   H3338015  14.368  12.700  10.703
  137PROX    O138016  14.156  12.833  10.633
  137PROX    C138017  14.053  12.890  10.563
  137PROX   H1138018  13.985  12.808  10.530
  137PROX   H1338019  14.003  12.959  10.633
  137PROX    C238020  14.098  12.972  10.435
  137PROX   H2138021  14.159  12.908  10.367
  137PROX    C338022  14.188  13.082  10.485
  137PROX   H3138023  14.278  13.038  10.533
  137PROX   H3238024  14.232  13.135  10.398
  137PROX   H3338025  14.145  13.147  10.565
  138PROX    O138026  13.990  13.030  10.371
  138PROX    C138027  13.991  12.998  10.229
  138PROX   H1138028  14.087  13.018  10.178
  138PROX   H1338029  13.979  12.888  10.214
  138PROX    C238030  13.875  13.072  10.156
  138PROX   H2138031  13.858  13.166  10.213
  138PROX    C338032  13.741  13.004  10.178
  138PROX   H3138033  13.749  12.898  10.146
  138PROX   H3238034  13.702  13.014  10.282
  138PROX   H3338035  13.663  13.054  10.116
  139PROX    O138036  13.908  13.094  10.019
  139PROX    C138037  13.927  12.978   9.941
  139PROX   H1138038  13.906  12.890  10.006
  139PROX   H1338039  13.853  12.982   9.858
  139PROX    C238040  14.070  12.981   9.879
  139PROX   H2138041  14.093  13.088   9.863
  139PROX    C338042  14.080  12.910   9.742
  139PROX   H3138043  14.179  12.920   9.692
  139PROX   H3238044  14.053  12.803   9.749
  139PROX   H3338045  14.007  12.953   9.671
  140PROX    O138046  14.158  12.923   9.980
  140PROX    C138047  14.164  12.784   9.986
  140PROX   H1138048  14.059  12.749   9.985
  140PROX   H1338049  14.231  12.754   9.902
  140PROX    C238050  14.231  12.742  10.112
  140PROX   H2138051  14.169  12.738  10.205
  140PROX    C338052  14.352  12.831  10.142
  140PROX   H3138053  14.398  12.857  10.045
  140PROX   H3238054  14.312  12.923  10.190
  140PROX   H3338055  14.428  12.775  10.201
  141PROX    O138056  14.293  12.612  10.104
  141PROX    C138057  14.204  12.507  10.124
  141PROX   H1138058  14.097  12.529  10.104
  141PROX   H1338059  14.232  12.420  10.060
  141PROX    C238060  14.228  12.453  10.272
  141PROX   H2138061  14.225  12.533  10.349
  141PROX    C338062  14.365  12.388  10.293
  141PROX   H3138063  14.438  12.466  10.261
  141PROX   H3238064  14.376  12.368  10.402
  141PROX   H3338065  14.365  12.296  10.231
  142PROX    O138066  14.131  12.355  10.298
  142PROX    C138067  14.030  12.401  10.384
  142PROX   H1138068  13.965  12.316  10.412
  142PROX   H1338069  14.082  12.441  10.473
  142PROX    C238070  13.939  12.513  10.326
  142PROX   H2138071  14.005  12.602  10.318
  142PROX    C338072  13.842  12.569  10.432
  142PROX   H3138073  13.736  12.535  10.426
  142PROX   H3238074  13.880  12.535  10.530
  142PROX   H3338075  13.847  12.680  10.444
  143PROX    O138076  13.876  12.485  10.206
  143PROX    C138077  13.795  12.593  10.159
  143PROX   H1138078  13.703  12.586  10.221
  143PROX   H1338079  13.837  12.696  10.155
  143PROX    C238080  13.750  12.565  10.009
  143PROX   H2138081  13.685  12.475  10.011
  143PROX    C338082  13.863  12.541   9.909
  143PROX   H3138083  13.823  12.480   9.825
  143PROX   H3238084  13.896  12.640   9.872
  143PROX   H3338085  13.951  12.499   9.962
  144PROX    O138086  13.667  12.669   9.968
  144PROX    C138087  13.584  12.634   9.862
  144PROX   H1138088  13.590  12.524   9.848
  144PROX   H1338089  13.477  12.652   9.885
  144PROX    C238090  13.622  12.726   9.743
  144PROX   H2138091  13.732  12.726   9.727
  144PROX    C338092  13.570  12.865   9.770
  144PROX   H3138093  13.616  12.932   9.694
  144PROX   H3238094  13.459  12.867   9.766
  144PROX   H3338095  13.606  12.905   9.867
  145PROX    O138096  13.564  12.680   9.622
  145PROX    C138097  13.623  12.566   9.564
  145PROX   H1138098  13.732  12.581   9.548
  145PROX   H1338099  13.614  12.476   9.628
  145PROX    C238100  13.550  12.519   9.429
  145PROX   H2138101  13.580  12.595   9.353
  145PROX    C338102  13.397  12.523   9.428
  145PROX   H3138103  13.341  12.485   9.340
  145PROX   H3238104  13.356  12.463   9.512
  145PROX   H3338105  13.361  12.628   9.438
  146PROX    O138106  13.607  12.395   9.379
  146PROX    C138107  13.583  12.365   9.233
  146PROX   H1138108  13.611  12.258   9.225
  146PROX   H1338109  13.479  12.375   9.196
  146PROX    C238110  13.675  12.433   9.132
  146PROX   H2138111  13.763  12.469   9.189
  146PROX    C338112  13.613  12.546   9.055
  146PROX   H3138113  13.591  12.625   9.130
  146PROX   H3238114  13.663  12.583   8.962
  146PROX   H3338115  13.515  12.512   9.016
  147PROX    O138116  13.720  12.335   9.041
  147PROX    C138117  13.829  12.250   9.081
  147PROX   H1138118  13.910  12.325   9.093
  147PROX   H1338119  13.818  12.199   9.179
  147PROX    C238120  13.849  12.128   8.982
  147PROX   H2138121  13.871  12.179   8.886
  147PROX    C338122  13.718  12.043   8.971
  147PROX   H3138123  13.640  12.121   8.957
  147PROX   H3238124  13.717  11.977   8.881
  147PROX   H3338125  13.702  11.983   9.063
  148PROX    O138126  13.965  12.054   9.023
  148PROX    C138127  14.035  12.001   8.911
  148PROX   H1138128  13.977  11.928   8.849
  148PROX   H1338129  14.073  12.088   8.854
  148PROX    C238130  14.164  11.922   8.959
  148PROX   H2138131  14.200  11.967   9.054
  148PROX    C338132  14.297  11.930   8.881
  148PROX   H3138133  14.387  11.894   8.935
  148PROX   H3238134  14.308  11.866   8.791
  148PROX   H3338135  14.324  12.036   8.861
  149PROX    O138136  14.113  11.791   8.982
  149PROX    C138137  14.084  11.760   9.123
  149PROX   H1138138  14.175  11.768   9.187
  149PROX   H1338139  14.009  11.831   9.165
  149PROX    C238140  14.035  11.612   9.133
  149PROX   H2138141  14.118  11.545   9.100
  149PROX    C338142  13.904  11.591   9.050
  149PROX   H3138143  13.837  11.675   9.078
  149PROX   H3238144  13.925  11.593   8.941
  149PROX   H3338145  13.855  11.494   9.072
  150PROX    O138146  13.995  11.571   9.266
  150PROX    C138147  14.104  11.519   9.333
  150PROX   H1138148  14.158  11.440   9.277
  150PROX   H1338149  14.176  11.602   9.354
  150PROX    C238150  14.066  11.460   9.470
  150PROX   H2138151  13.967  11.415   9.447
  150PROX    C338152  14.051  11.562   9.585
  150PROX   H3138153  14.010  11.527   9.682
  150PROX   H3238154  14.143  11.622   9.604
  150PROX   H3338155  13.979  11.642   9.556
  151PROX    O138156  14.162  11.363   9.498
  151PROX    C138157  14.106  11.265   9.588
  151PROX   H1138158  14.094  11.317   9.686
  151PROX   H1338159  14.016  11.217   9.545
  151PROX    C238160  14.208  11.151   9.622
  151PROX   H2138161  14.214  11.096   9.526
  151PROX    C338162  14.159  11.067   9.746
  151PROX   H3138163  14.176  11.117   9.844
  151PROX   H3238164  14.053  11.039   9.728
  151PROX   H3338165  14.218  10.973   9.740
  152PROX    O138166  14.336  11.207   9.643
  152PROX    C138167  14.435  11.104   9.639
  152PROX   H1138168  14.424  11.032   9.723
  152PROX   H1338169  14.424  11.043   9.546
  152PROX    C238170  14.573  11.159   9.642
  152PROX   H2138171  14.575  11.249   9.577
  152PROX    C338172  14.675  11.047   9.608
  152PROX   H3138173  14.641  11.001   9.512
  152PROX   H3238174  14.785  11.058   9.607
  152PROX   H3338175  14.652  10.971   9.686
  153PROX    O138176  14.597  11.211   9.776
  153PROX    C138177  14.709  11.297   9.770
  153PROX   H1138178  14.798  11.234   9.750
  153PROX   H1338179  14.695  11.380   9.698
  153PROX    C238180  14.730  11.356   9.910
  153PROX   H2138181  14.762  11.284   9.988
  153PROX    C338182  14.593  11.407   9.958
  153PROX   H3138183  14.597  11.444  10.063
  153PROX   H3238184  14.570  11.498   9.899
  153PROX   H3338185  14.523  11.321   9.952
  154PROX    O138186  14.836  11.456   9.904
  154PROX    C138187  14.877  11.500  10.036
  154PROX   H1138188  14.797  11.565  10.077
  154PROX   H1338189  14.885  11.405  10.092
  154PROX    C238190  15.018  11.562  10.030
  154PROX   H2138191  15.019  11.654   9.967
  154PROX    C338192  15.111  11.457   9.961
  154PROX   H3138193  15.140  11.371  10.025
  154PROX   H3238194  15.057  11.413   9.875
  154PROX   H3338195  15.205  11.507   9.930
  155PROX    O138196  15.057  11.603  10.159
  155PROX    C138197  15.172  11.685  10.157
  155PROX   H1138198  15.207  11.711  10.260
  155PROX   H1338199  15.257  11.627  10.113
  155PROX    C238200  15.166  11.817  10.081
  155PROX   H2138201  15.142  11.812   9.973
  155PROX    C338202  15.308  11.882  10.081
  155PROX   H3138203  15.377  11.826  10.014
  155PROX   H3238204  15.307  11.987  10.045
  155PROX   H3338205  15.347  11.902  10.183
  156PROX    O138206  15.074  11.905  10.156
  156PROX    C138207  14.936  11.886  10.136
  156PROX   H1138208  14.905  11.924  10.037
  156PROX   H1338209  14.911  11.778  10.144
  156PROX    C238210  14.860  11.955  10.247
  156PROX   H2138211  14.864  12.066  10.247
  156PROX    C338212  14.896  11.903  10.387
  156PROX   H3138213  14.860  11.798  10.399
  156PROX   H3238214  15.004  11.927  10.387
  156PROX   H3338215  14.854  11.965  10.468
  157PROX    O138216  14.722  11.914  10.228
  157PROX    C138217  14.656  11.969  10.115
  157PROX   H1138218  14.654  12.078  10.135
  157PROX   H1338219  14.704  11.960  10.016
  157PROX    C238220  14.514  11.919  10.107
  157PROX   H2138221  14.475  11.894  10.208
  157PROX    C338222  14.497  11.794  10.021
  157PROX   H3138223  14.485  11.815   9.913
  157PROX   H3238224  14.578  11.719  10.034
  157PROX   H3338225  14.399  11.749  10.051
  158PROX    O138226  14.428  12.019  10.052
  158PROX    C138227  14.283  12.007  10.068
  158PROX   H1138228  14.252  11.902  10.046
  158PROX   H1338229  14.272  12.025  10.177
  158PROX    C238230  14.221  12.114   9.979
  158PROX   H2138231  14.286  12.204   9.975
  158PROX    C338232  14.076  12.134  10.031
  158PROX   H3138233  14.073  12.150  10.141
  158PROX   H3238234  14.032  12.226   9.986
  158PROX   H3338235  14.005  12.055  10.001
  159PROX    O138236  14.200  12.065   9.844
  159PROX    C138237  14.317  12.040   9.769
  159PROX   H1138238  14.376  12.133   9.757
  159PROX   H1338239  14.377  11.969   9.829
  159PROX    C238240  14.299  11.974   9.626
  159PROX   H2138241  14.192  11.957   9.605
  159PROX    C338242  14.363  11.832   9.618
  159PROX   H3138243  14.340  11.765   9.704
  159PROX   H3238244  14.322  11.771   9.535
  159PROX   H3338245  14.474  11.826   9.624
  160PROX    O138246  14.360  12.054   9.524
  160PROX    C138247  14.279  12.052   9.401
  160PROX   H1138248  14.339  12.091   9.317
  160PROX   H1338249  14.245  11.947   9.384
  160PROX    C238250  14.155  12.140   9.422
  160PROX   H2138251  14.141  12.166   9.529
  160PROX    C338252  14.036  12.059   9.375
  160PROX   H3138253  13.940  12.104   9.409
  160PROX   H3238254  14.040  12.065   9.264
  160PROX   H3338255  14.035  11.953   9.408
  161PROX    O138256  14.173  12.260   9.350
  161PROX    C138257  14.061  12.347   9.356
  161PROX   H1138258  13.969  12.310   9.306
  161PROX   H1338259  14.041  12.363   9.464
  161PROX    C238260  14.104  12.492   9.306
  161PROX   H2138261  14.208  12.502   9.343
  161PROX    C338262  14.008  12.596   9.355
  161PROX   H3138263  14.021  12.607   9.465
  161PROX   H3238264  14.036  12.698   9.320
  161PROX   H3338265  13.902  12.572   9.331
  162PROX    O138266  14.082  12.507   9.166
  162PROX    C138267  14.166  12.431   9.092
  162PROX   H1138268  14.273  12.450   9.115
  162PROX   H1338269  14.148  12.325   9.119
  162PROX    C238270  14.139  12.443   8.945
  162PROX   H2138271  14.039  12.403   8.918
  162PROX    C338272  14.246  12.360   8.868
  162PROX   H3138273  14.249  12.365   8.757
  162PROX   H3238274  14.347  12.390   8.904
  162PROX   H3338275  14.243  12.252   8.895
  163PROX    O138276  14.146  12.579   8.904
  163PROX    C138277  14.023  12.653   8.916
  163PROX   H1138278  13.997  12.704   8.821
  163PROX   H1338279  13.944  12.582   8.948
  163PROX    C238280  14.043  12.767   9.017
  163PROX   H2138281  14.110  12.724   9.095
  163PROX    C338282  13.923  12.805   9.082
  163PROX   H3138283  13.896  12.729   9.158
  163PROX   H3238284  13.930  12.902   9.136
  163PROX   H3338285  13.833  12.809   9.017
  164PROX    O138286  14.110  12.870   8.958
  164PROX    C138287  14.252  12.875   8.958
  164PROX   H1138288  14.294  12.881   9.061
  164PROX   H1338289  14.292  12.779   8.918
  164PROX    C238290  14.321  12.998   8.884
  164PROX   H2138291  14.318  13.083   8.955
  164PROX    C338292  14.252  13.052   8.759
  164PROX   H3138293  14.141  13.041   8.764
  164PROX   H3238294  14.274  13.160   8.745
  164PROX   H3338295  14.285  13.008   8.663
  165PROX    O138296  14.460  12.955   8.865
  165PROX    C138297  14.544  13.061   8.832
  165PROX   H1138298  14.563  13.062   8.722
  165PROX   H1338299  14.503  13.159   8.866
  165PROX    C238300  14.679  13.037   8.911
  165PROX   H2138301  14.730  12.941   8.888
  165PROX    C338302  14.656  13.033   9.060
  165PROX   H3138303  14.644  13.133   9.105
  165PROX   H3238304  14.566  12.969   9.075
  165PROX   H3338305  14.747  12.997   9.112
  166ETHO    O138306  14.773  13.140   8.864
  166ETHO    C138307  14.906  13.128   8.928
  166ETHO   H1138308  14.949  13.026   8.935
  166ETHO   H1338309  14.898  13.168   9.032
  166ETHO    C238310  15.006  13.209   8.847
  166ETHO   H2138311  15.067  13.281   8.907
  166ETHO   H2338312  14.956  13.276   8.774
  167ETHO    O138313  15.109  13.135   8.776
  167ETHO    C138314  15.044  13.059   8.671
  167ETHO   H1138315  14.973  12.989   8.720
  167ETHO   H1338316  14.998  13.125   8.594
  167ETHO    C238317  15.150  12.981   8.589
  167ETHO   H2138318  15.098  12.915   8.516
  167ETHO   H2338319  15.200  12.914   8.662
  168ETHO    O138320  15.240  13.063   8.518
  168ETHO    C138321  15.359  13.004   8.483
  168ETHO   H1138322  15.331  12.904   8.443
  168ETHO   H1338323  15.428  12.998   8.569
  168ETHO    C238324  15.427  13.084   8.368
  168ETHO   H2138325  15.530  13.045   8.352
  168ETHO   H2338326  15.435  13.189   8.403
  169ETHO    O138327  15.356  13.072   8.248
  169ETHO    C138328  15.392  12.952   8.179
  169ETHO   H1138329  15.482  12.973   8.117
  169ETHO   H1338330  15.421  12.870   8.249
  169ETHO    C238331  15.270  12.919   8.089
  169ETHO   H2138332  15.299  12.857   8.002
  169ETHO   H2338333  15.241  13.017   8.044
  170ETHO    O138334  15.154  12.858   8.156
  170ETHO    C138335  15.179  12.724   8.191
  170ETHO   H1138336  15.267  12.719   8.259
  170ETHO   H1338337  15.203  12.671   8.097
  170ETHO    C238338  15.050  12.649   8.245
  170ETHO   H2138339  15.015  12.716   8.327
  170ETHO   H2338340  15.082  12.551   8.285
  171ETHO    O138341  14.942  12.624   8.153
  171ETHO    C138342  14.834  12.558   8.217
  171ETHO   H1138343  14.847  12.449   8.198
  171ETHO   H1338344  14.849  12.580   8.325
  171ETHO    C238345  14.693  12.606   8.180
  171ETHO   H2138346  14.679  12.706   8.225
  171ETHO   H2338347  14.626  12.534   8.232
  172ETHO    O138348  14.672  12.608   8.042
  172ETHO    C138349  14.544  12.660   8.015
  172ETHO   H1138350  14.537  12.764   8.053
  172ETHO   H1338351  14.467  12.609   8.077
  172ETHO    C238352  14.525  12.641   7.862
  172ETHO   H2138353  14.417  12.666   7.852
  172ETHO   H2338354  14.529  12.533   7.835
  173ETHO    O138355  14.619  12.721   7.789
  173ETHO    C138356  14.616  12.679   7.657
  173ETHO   H1138357  14.626  12.569   7.646
  173ETHO   H1338358  14.525  12.703   7.597
  173ETHO    C238359  14.746  12.732   7.589
  173ETHO   H2138360  14.742  12.737   7.478
  173ETHO   H2338361  14.770  12.836   7.618
  174ETHO    O138362  14.858  12.645   7.618
  174ETHO    C138363  14.925  12.679   7.738
  174ETHO   H1138364  14.936  12.789   7.732
  174ETHO   H1338365  14.857  12.655   7.822
  174ETHO    C238366  15.066  12.617   7.764
  174ETHO   H2138367  15.057  12.508   7.782
  174ETHO   H2338368  15.110  12.665   7.854
  175ETHO    O138369  15.148  12.632   7.652
  175ETHO    C138370  15.195  12.765   7.643
  175ETHO   H1138371  15.112  12.826   7.604
  175ETHO   H1338372  15.233  12.811   7.737
  175ETHO    C238373  15.314  12.770   7.541
  175ETHO   H2138374  15.346  12.873   7.517
  175ETHO   H2338375  15.274  12.713   7.454
  176ETHO    O138376  15.431  12.706   7.590
  176ETHO    C138377  15.524  12.681   7.491
  176ETHO   H1138378  15.470  12.661   7.396
  176ETHO   H1338379  15.582  12.771   7.462
  176ETHO    C238380  15.619  12.559   7.509
  176ETHO   H2138381  15.673  12.569   7.605
  176ETHO   H2338382  15.697  12.560   7.430
  177ETHO    O138383  15.556  12.435   7.500
  177ETHO    C138384  15.641  12.331   7.562
  177ETHO   H1138385  15.689  12.379   7.650
  177ETHO   H1338386  15.719  12.295   7.491
  177ETHO    C238387  15.553  12.215   7.606
  177ETHO   H2138388  15.473  12.236   7.681
  177ETHO   H2338389  15.613  12.131   7.646
  178ETHO    O138390  15.480  12.158   7.503
  178ETHO    C138391  15.422  12.031   7.544
  178ETHO   H1138392  15.500  11.954   7.563
  178ETHO   H1338393  15.362  12.047   7.636
  178ETHO    C238394  15.325  11.980   7.442
  178ETHO   H2138395  15.263  12.066   7.407
  178ETHO   H2338396  15.253  11.905   7.479
  179ETHO    O138397  15.400  11.926   7.332
  179ETHO    C138398  15.320  11.843   7.247
  179ETHO   H1138399  15.261  11.772   7.308
  179ETHO   H1338400  15.382  11.779   7.181
  179ETHO    C238401  15.204  11.908   7.160
  179ETHO   H2138402  15.154  11.991   7.214
  179ETHO   H2338403  15.128  11.832   7.131
  180ETHO    O138404  15.255  11.949   7.029
  180ETHO    C138405  15.335  12.068   7.039
  180ETHO   H1138406  15.268  12.157   7.036
  180ETHO   H1338407  15.393  12.062   7.134
  180ETHO    C238408  15.420  12.087   6.907
  180ETHO   H2138409  15.474  12.183   6.920
  180ETHO   H2338410  15.356  12.081   6.816
  181ETHO    O138411  15.515  11.980   6.898
  181ETHO    C138412  15.594  12.005   6.781
  181ETHO   H1138413  15.654  12.093   6.812
  181ETHO   H1338414  15.532  12.034   6.693
  181ETHO    C238415  15.680  11.887   6.732
  181ETHO   H2138416  15.740  11.846   6.816
  181ETHO   H2338417  15.751  11.911   6.651
  182ETHO    O138418  15.588  11.791   6.677
  182ETHO    C138419  15.666  11.680   6.630
  182ETHO   H1138420  15.754  11.723   6.578
  182ETHO   H1338421  15.704  11.632   6.723
  182ETHO    C238422  15.578  11.588   6.552
  182ETHO   H2138423  15.480  11.573   6.602
  182ETHO   H2338424  15.626  11.492   6.524
  183ETHO    O138425  15.545  11.644   6.423
  183ETHO    C138426  15.421  11.599   6.369
  183ETHO   H1138427  15.340  11.625   6.440
  183ETHO   H1338428  15.423  11.491   6.343
  183ETHO    C238429  15.380  11.684   6.241
  183ETHO   H2138430  15.284  11.644   6.199
  183ETHO   H2338431  15.451  11.658   6.159
  184ETHO    O138432  15.389  11.827   6.271
  184ETHO    C138433  15.287  11.898   6.216
  184ETHO   H1138434  15.191  11.843   6.229
  184ETHO   H1338435  15.286  11.998   6.263
  184ETHO    C238436  15.318  11.914   6.068
  184ETHO   H2138437  15.345  11.820   6.015
  184ETHO   H2338438  15.401  11.989   6.068
  185ETHO    O138439  15.199  11.968   6.011
  185ETHO    C138440  15.220  12.009   5.878
  185ETHO   H1138441  15.303  12.083   5.870
  185ETHO   H1338442  15.258  11.930   5.809
  185ETHO    C238443  15.091  12.062   5.815
  185ETHO   H2138444  15.106  12.130   5.728
  185ETHO   H2338445  15.045  12.119   5.899
  186ETHO    O138446  15.008  11.961   5.766
  186ETHO    C138447  14.901  12.005   5.683
  186ETHO   H1138448  14.934  12.089   5.618
  186ETHO   H1338449  14.850  11.927   5.622
  186ETHO    C238450  14.784  12.065   5.762
  186ETHO   H2138451  14.730  12.130   5.689
  186ETHO   H2338452  14.829  12.138   5.832
  187ETHO    O138453  14.713  11.957   5.821
  187ETHO    C138454  14.608  12.001   5.906
  187ETHO   H1138455  14.643  12.070   5.986
  187ETHO   H1338456  14.518  12.036   5.850
  187ETHO    C238457  14.562  11.873   5.989
  187ETHO   H2138458  14.548  11.910   6.093
  187ETHO   H2338459  14.646  11.800   5.986
  188ETHO    O138460  14.440  11.808   5.951
  188ETHO    C138461  14.409  11.698   6.039
  188ETHO   H1138462  14.500  11.634   6.043
  188ETHO   H1338463  14.333  11.640   5.982
  188ETHO    C238464  14.345  11.736   6.175
  188ETHO   H2138465  14.408  11.810   6.228
  188ETHO   H2338466  14.330  11.640   6.229
  189ETHO    O138467  14.219  11.793   6.162
  189ETHO    C138468  14.158  11.833   6.285
  189ETHO   H1138469  14.223  11.902   6.343
  189ETHO   H1338470  14.066  11.893   6.267
  189ETHO    C238471  14.100  11.708   6.358
  189ETHO   H2138472  14.055  11.635   6.288
  189ETHO   H2338473  14.018  11.738   6.426
  190ETHO    O138474  14.197  11.654   6.448
  190ETHO    C138475  14.196  11.511   6.451
  190ETHO   H1138476  14.235  11.469   6.355
  190ETHO   H1338477  14.092  11.474   6.464
  190ETHO    C238478  14.259  11.478   6.590
  190ETHO   H2138479  14.214  11.527   6.679
  190ETHO   H2338480  14.366  11.508   6.598
  191ETHO    O138481  14.254  11.332   6.593
  191ETHO    C138482  14.326  11.276   6.700
  191ETHO   H1138483  14.341  11.168   6.679
  191ETHO   H1338484  14.422  11.330   6.716
  191ETHO    C238485  14.239  11.260   6.820
  191ETHO   H2138486  14.250  11.169   6.884
  191ETHO   H2338487  14.131  11.265   6.798
  192ETHO    O138488  14.263  11.359   6.913
  192ETHO    C138489  14.166  11.365   7.012
  192ETHO   H1138490  14.161  11.262   7.054
  192ETHO   H1338491  14.072  11.389   6.959
  192ETHO    C238492  14.200  11.472   7.117
  192ETHO   H2138493  14.299  11.450   7.164
  192ETHO   H2338494  14.129  11.456   7.201
  193ETHO    O138495  14.209  11.605   7.073
  193ETHO    C138496  14.119  11.691   7.132
  193ETHO   H1138497  14.015  11.655   7.119
  193ETHO   H1338498  14.132  11.684   7.242
  193ETHO    C238499  14.135  11.832   7.070
  193ETHO   H2138500  14.071  11.904   7.125
  193ETHO   H2338501  14.090  11.829   6.969
  194ETHO    O138502  14.273  11.873   7.075
  194ETHO    C138503  14.298  12.010   7.039
  194ETHO   H1138504  14.248  12.076   7.113
  194ETHO   H1338505  14.253  12.042   6.942
  194ETHO    C238506  14.448  12.046   7.037
  194ETHO   H2138507  14.460  12.140   6.979
  194ETHO   H2338508  14.502  11.960   6.992
  195ETHO    O138509  14.491  12.079   7.169
  195ETHO    C138510  14.504  11.975   7.261
  195ETHO   H1138511  14.413  11.976   7.324
  195ETHO   H1338512  14.502  11.875   7.212
  195ETHO    C238513  14.630  11.995   7.347
  195ETHO   H2138514  14.723  11.988   7.286
  195ETHO   H2338515  14.650  11.921   7.427
  196ETHO    O138516  14.613  12.128   7.410
  196ETHO    C138517  14.737  12.172   7.472
  196ETHO   H1138518  14.761  12.096   7.550
  196ETHO   H1338519  14.810  12.189   7.390
  196ETHO    C238520  14.724  12.310   7.540
  196ETHO   H2138521  14.646  12.367   7.484
  196ETHO   H2338522  14.816  12.372   7.540
  197ETHO    O138523  14.679  12.310   7.671
  197ETHO    C138524  14.786  12.311   7.765
  197ETHO   H1138525  14.843  12.216   7.756
  197ETHO   H1338526  14.863  12.384   7.733
  197ETHO    C238527  14.738  12.316   7.910
  197ETHO   H2138528  14.695  12.418   7.919
  197ETHO   H2338529  14.826  12.308   7.978
  198ETHO    O138530  14.651  12.209   7.943
  198ETHO    C138531  14.608  12.203   8.081
  198ETHO   H1138532  14.696  12.220   8.147
  198ETHO   H1338533  14.549  12.296   8.093
  198ETHO    C238534  14.535  12.082   8.117
  198ETHO   H2138535  14.596  11.999   8.159
  198ETHO   H2338536  14.481  12.034   8.033
  199ETHO    O138537  14.431  12.113   8.206
  199ETHO    C138538  14.356  11.997   8.240
  199ETHO   H1138539  14.421  11.908   8.226
  199ETHO   H1338540  14.264  12.002   8.177
  199ETHO    C238541  14.320  11.991   8.383
  199ETHO   H2138542  14.388  12.047   8.450
  199ETHO   H2338543  14.299  11.890   8.424
  200ETHO    O138544  14.195  12.066   8.399
  200ETHO    C138545  14.137  12.044   8.525
  200ETHO   H1138546  14.155  11.940   8.559
  200ETHO   H1338547  14.184  12.112   8.600
  200ETHO    C238548  13.988  12.081   8.517
  200ETHO   H2138549  13.944  12.050   8.614
  200ETHO   H2338550  13.938  12.027   8.434
  201ETHO    O138551  13.947  12.222   8.509
  201ETHO    C138552  13.815  12.242   8.553
  201ETHO   H1138553  13.794  12.350   8.533
  201ETHO   H1338554  13.804  12.233   8.663
  201ETHO    C238555  13.712  12.157   8.476
  201ETHO   H2138556  13.722  12.155   8.366
  201ETHO   H2338557  13.610  12.199   8.491
  202ETHO    O138558  13.707  12.020   8.523
  202ETHO    C138559  13.664  11.931   8.426
  202ETHO   H1138560  13.718  11.939   8.329
  202ETHO   H1338561  13.693  11.829   8.458
  202ETHO    C238562  13.520  11.939   8.391
  202ETHO   H2138563  13.506  11.934   8.281
  202ETHO   H2338564  13.478  12.040   8.409
  203ETHO    O138565  13.447  11.828   8.447
  203ETHO    C138566  13.309  11.855   8.434
  203ETHO   H1138567  13.287  11.835   8.327
  203ETHO   H1338568  13.279  11.962   8.445
  203ETHO    C238569  13.231  11.771   8.531
  203ETHO   H2138570  13.255  11.664   8.518
  203ETHO   H2338571  13.122  11.778   8.510
  204ETHO    O138572  13.249  11.813   8.666
  204ETHO    C138573  13.203  11.723   8.763
  204ETHO   H1138574  13.093  11.713   8.765
  204ETHO   H1338575  13.248  11.623   8.741
  204ETHO    C238576  13.245  11.770   8.901
  204ETHO   H2138577  13.187  11.742   8.991
  204ETHO   H2338578  13.257  11.881   8.895
  205ETHO    O138579  13.371  11.716   8.928
  205ETHO    C138580  13.443  11.776   9.039
  205ETHO   H1138581  13.366  11.807   9.113
  205ETHO   H1338582  13.495  11.868   9.005
  205ETHO    C238583  13.545  11.680   9.096
  205ETHO   H2138584  13.614  11.659   9.012
  205ETHO   H2338585  13.506  11.579   9.122
  206ETHO    O138586  13.624  11.744   9.198
  206ETHO    C138587  13.647  11.668   9.313
  206ETHO   H1138588  13.548  11.642   9.356
  206ETHO   H1338589  13.686  11.567   9.289
  206ETHO    C238590  13.751  11.755   9.392
  206ETHO   H2138591  13.794  11.684   9.465
  206ETHO   H2338592  13.833  11.796   9.329
  207ETHO    O138593  13.695  11.860   9.472
  207ETHO    C138594  13.653  11.979   9.405
  207ETHO   H1138595  13.560  11.946   9.355
  207ETHO   H1338596  13.731  12.018   9.335
  207ETHO    C238597  13.639  12.086   9.520
  207ETHO   H2138598  13.548  12.074   9.583
  207ETHO   H2338599  13.629  12.181   9.464
  208ETHO    O138600  13.755  12.088   9.610
  208ETHO    C138601  13.799  12.223   9.628
  208ETHO   H1138602  13.829  12.245   9.524
  208ETHO   H1338603  13.721  12.294   9.661
  208ETHO    C238604  13.923  12.227   9.721
  208ETHO   H2138605  13.986  12.140   9.693
  208ETHO   H2338606  13.886  12.213   9.825
  209ETHO    O138607  13.986  12.354   9.705
  209ETHO    C138608  14.123  12.358   9.749
  209ETHO   H1138609  14.189  12.282   9.702
  209ETHO   H1338610  14.131  12.348   9.859
  209ETHO    C238611  14.185  12.494   9.711
  209ETHO   H2138612  14.162  12.576   9.782
  209ETHO   H2338613  14.148  12.532   9.614
  210ETHO    O138614  14.325  12.493   9.707
  210ETHO    C138615  14.375  12.455   9.577
  210ETHO   H1138616  14.322  12.361   9.548
  210ETHO   H1338617  14.356  12.541   9.510
  210ETHO    C238618  14.524  12.432   9.571
  210ETHO   H2138619  14.539  12.336   9.516
  210ETHO   H2338620  14.567  12.408   9.670
  211ETHO    O138621  14.603  12.529   9.504
  211ETHO    C138622  14.738  12.522   9.547
  211ETHO   H1138623  14.745  12.522   9.658
  211ETHO   H1338624  14.781  12.426   9.511
  211ETHO    C238625  14.830  12.629   9.480
  211ETHO   H2138626  14.918  12.645   9.546
  211ETHO   H2338627  14.771  12.724   9.484
  212ETHO    O138628  14.876  12.597   9.349
  212ETHO    C138629  14.898  12.723   9.269
  212ETHO   H1138630  14.806  12.785   9.262
  212ETHO   H1338631  14.982  12.784   9.308
  212ETHO    C238632  14.937  12.670   9.127
  212ETHO   H2138633  14.915  12.758   9.062
  212ETHO   H2338634  14.885  12.577   9.095
  213ETHO    O138635  15.078  12.647   9.115
  213ETHO    C138636  15.119  12.623   8.973
  213ETHO   H1138637  15.100  12.517   8.945
  213ETHO   H1338638  15.057  12.687   8.907
  213ETHO    C238639  15.270  12.649   8.962
  213ETHO   H2138640  15.312  12.671   9.062
  213ETHO   H2338641  15.285  12.738   8.896
  214ETHO    O138642  15.329  12.530   8.912
  214ETHO    C138643  15.473  12.527   8.938
  214ETHO   H1138644  15.525  12.619   8.902
  214ETHO   H1338645  15.517  12.444   8.879
  214ETHO    C238646  15.498  12.497   9.084
  214ETHO   H2138647  15.503  12.387   9.099
  214ETHO   H2338648  15.414  12.523   9.152
  215ETHO    O138649  15.628  12.537   9.121
  215ETHO    C138650  15.651  12.494   9.260
  215ETHO   H1138651  15.587  12.570   9.310
  215ETHO   H1338652  15.620  12.390   9.280
  215ETHO    C238653  15.796  12.504   9.287
  215ETHO   H2138654  15.813  12.508   9.397
  215ETHO   H2338655  15.856  12.582   9.235
  216ETHO    O138656  15.850  12.374   9.244
  216ETHO    C138657  15.986  12.384   9.217
  216ETHO   H1138658  16.032  12.395   9.317
  216ETHO   H1338659  16.006  12.476   9.158
  216ETHO    C238660  16.027  12.257   9.138
  216ETHO   H2138661  16.005  12.162   9.191
  216ETHO   H2338662  16.136  12.252   9.113
  217ETHO    O138663  15.967  12.258   9.010
  217ETHO    C138664  15.857  12.171   8.991
  217ETHO   H1138665  15.888  12.067   9.014
  217ETHO   H1338666  15.781  12.196   9.068
  217ETHO    C238667  15.796  12.198   8.842
  217ETHO   H2138668  15.796  12.306   8.818
  217ETHO   H2338669  15.694  12.155   8.850
  218ETHO    O138670  15.888  12.126   8.757
  218ETHO    C138671  15.893  12.182   8.623
  218ETHO   H1138672  15.923  12.289   8.628
  218ETHO   H1338673  15.788  12.174   8.591
  218ETHO    C238674  15.983  12.112   8.528
  218ETHO   H2138675  16.079  12.102   8.584
  218ETHO   H2338676  16.009  12.176   8.441
  219ETHO    O138677  15.922  11.986   8.492
  219ETHO    C138678  15.839  11.987   8.371
  219ETHO   H1138679  15.770  12.072   8.383
  219ETHO   H1338680  15.905  12.012   8.285
  219ETHO    C238681  15.742  11.859   8.364
  219ETHO   H2138682  15.801  11.765   8.352
  219ETHO   H2338683  15.687  11.858   8.267
  220ETHO    O138684  15.635  11.839   8.460
  220ETHO    C138685  15.675  11.820   8.597
  220ETHO   H1138686  15.717  11.913   8.639
  220ETHO   H1338687  15.751  11.740   8.581
  220ETHO    C238688  15.545  11.776   8.672
  220ETHO   H2138689  15.469  11.764   8.592
  220ETHO   H2338690  15.511  11.850   8.748
  221ETHO    O138691  15.556  11.644   8.737
  221ETHO    C138692  15.636  11.650   8.855
  221ETHO   H1138693  15.731  11.706   8.843
  221ETHO   H1338694  15.575  11.699   8.933
  221ETHO    C238695  15.664  11.512   8.916
  221ETHO   H2138696  15.579  11.442   8.936
  221ETHO   H2338697  15.717  11.529   9.012
  222ETHO    O138698  15.761  11.442   8.845
  222ETHO    C138699  15.772  11.305   8.875
  222ETHO   H1138700  15.757  11.303   8.985
  222ETHO   H1338701  15.693  11.245   8.825
  222ETHO    C238702  15.911  11.242   8.857
  222ETHO   H2138703  15.926  11.137   8.889
  222ETHO   H2338704  15.990  11.306   8.901
  223ETHO    O138705  15.955  11.256   8.719
  223ETHO    C138706  15.895  11.147   8.640
  223ETHO   H1138707  15.896  11.051   8.695
  223ETHO   H1338708  15.786  11.172   8.642
  223ETHO    C238709  15.943  11.136   8.495
  223ETHO   H2138710  15.931  11.241   8.458
  223ETHO   H2338711  15.872  11.067   8.445
  224ETHO    O138712  16.076  11.097   8.462
  224ETHO    C138713  16.109  10.965   8.507
  224ETHO   H1138714  16.113  10.962   8.618
  224ETHO   H1338715  16.028  10.897   8.473
  224ETHO    C238716  16.245  10.926   8.451
  224ETHO   H2138717  16.265  10.826   8.494
  224ETHO   H2338718  16.320  10.999   8.490
  225ETHO    O138719  16.242  10.914   8.314
  225ETHO    C138720  16.368  10.872   8.274
  225ETHO   H1138721  16.374  10.764   8.298
  225ETHO   H1338722  16.440  10.934   8.331
  225ETHO    C238723  16.395  10.901   8.130
  225ETHO   H2138724  16.500  10.888   8.098
  225ETHO   H2338725  16.384  11.010   8.113
  226ETHO    O138726  16.295  10.842   8.046
  226ETHO    C138727  16.295  10.706   8.018
  226ETHO   H1138728  16.278  10.649   8.112
  226ETHO   H1338729  16.215  10.675   7.948
  226ETHO    C238730  16.432  10.648   7.966
  226ETHO   H2138731  16.417  10.538   7.973
  226ETHO   H2338732  16.511  10.673   8.040
  227ETHO    O138733  16.461  10.702   7.835
  227ETHO    C138734  16.575  10.651   7.776
  227ETHO   H1138735  16.602  10.553   7.820
  227ETHO   H1338736  16.659  10.713   7.814
  227ETHO    C238737  16.567  10.636   7.620
  227ETHO   H2138738  16.465  10.594   7.608
  227ETHO   H2338739  16.643  10.577   7.565
  228ETHO    O138740  16.568  10.761   7.558
  228ETHO    C138741  16.551  10.759   7.412
  228ETHO   H1138742  16.628  10.687   7.374
  228ETHO   H1338743  16.447  10.724   7.395
  228ETHO    C238744  16.582  10.894   7.352
  228ETHO   H2138745  16.528  10.960   7.423
  228ETHO   H2338746  16.545  10.916   7.249
  229ETHO    O138747  16.724  10.921   7.361
  229ETHO    C138748  16.753  11.038   7.283
  229ETHO   H1138749  16.720  11.119   7.351
  229ETHO   H1338750  16.708  11.039   7.181
  229ETHO    C238751  16.903  11.057   7.270
  229ETHO   H2138752  16.955  11.013   7.359
  229ETHO   H2338753  16.922  11.165   7.255
  230ETHO    O138754  16.943  10.985   7.154
  230ETHO    C138755  16.931  10.848   7.168
  230ETHO   H1138756  16.972  10.807   7.263
  230ETHO   H1338757  16.825  10.823   7.149
  230ETHO    C238758  17.009  10.768   7.058
  230ETHO   H2138759  17.000  10.835   6.970
  230ETHO   H2338760  16.954  10.672   7.053
  231ETHO    O138761  17.146  10.752   7.091
  231ETHO    C138762  17.181  10.622   7.140
  231ETHO   H1138763  17.180  10.562   7.047
  231ETHO   H1338764  17.113  10.573   7.214
  231ETHO    C238765  17.322  10.632   7.197
  231ETHO   H2138766  17.383  10.690   7.124
  231ETHO   H2338767  17.365  10.530   7.194
  232ETHO    O138768  17.332  10.692   7.324
  232ETHO    C138769  17.304  10.830   7.335
  232ETHO   H1138770  17.366  10.882   7.259
  232ETHO   H1338771  17.196  10.849   7.316
  232ETHO    C238772  17.344  10.895   7.470
  232ETHO   H2138773  17.268  10.870   7.548
  232ETHO   H2338774  17.346  11.006   7.464
  233ETHO    O138775  17.470  10.850   7.530
  233ETHO    C138776  17.515  10.929   7.642
  233ETHO   H1138777  17.427  10.955   7.706
  233ETHO   H1338778  17.581  10.877   7.715
  233ETHO    C238779  17.588  11.058   7.606
  233ETHO   H2138780  17.618  11.113   7.698
  233ETHO   H2338781  17.523  11.120   7.541
  234ETHO    O138782  17.709  11.029   7.528
  234ETHO    C138783  17.784  11.140   7.477
  234ETHO   H1138784  17.718  11.203   7.413
  234ETHO   H1338785  17.813  11.204   7.563
  234ETHO    C238786  17.902  11.093   7.400
  234ETHO   H2138787  17.865  10.998   7.356
  234ETHO   H2338788  17.987  11.060   7.463
  235ETHO    O138789  17.961  11.186   7.309
  235ETHO    C138790  18.050  11.123   7.216
  235ETHO   H1138791  18.112  11.047   7.268
  235ETHO   H1338792  17.987  11.077   7.135
  235ETHO    C238793  18.143  11.237   7.154
  235ETHO   H2138794  18.080  11.322   7.121
  235ETHO   H2338795  18.203  11.189   7.074
  236ETHO    O138796  18.238  11.293   7.244
  236ETHO    C138797  18.302  11.412   7.193
  236ETHO   H1138798  18.234  11.499   7.176
  236ETHO   H1338799  18.349  11.392   7.095
  236ETHO    C238800  18.416  11.456   7.293
  236ETHO   H2138801  18.386  11.523   7.377
  236ETHO   H2338802  18.466  11.540   7.240
  237ETHO    O138803  18.518  11.368   7.335
  237ETHO    C138804  18.599  11.328   7.223
  237ETHO   H1138805  18.539  11.262   7.157
  237ETHO   H1338806  18.632  11.424   7.177
  237ETHO    C238807  18.720  11.243   7.267
  237ETHO   H2138808  18.783  11.300   7.340
  237ETHO   H2338809  18.777  11.242   7.172
  238ETHO    O138810  18.698  11.109   7.310
  238ETHO    C138811  18.812  11.030   7.292
  238ETHO   H1138812  18.897  11.066   7.353
  238ETHO   H1338813  18.854  11.044   7.190
  238ETHO    C238814  18.789  10.879   7.316
  238ETHO   H2138815  18.723  10.867   7.405
  238ETHO   H2338816  18.889  10.844   7.348
  239ETHO    O138817  18.728  10.801   7.214
  239ETHO    C138818  18.709  10.665   7.254
  239ETHO   H1138819  18.795  10.641   7.319
  239ETHO   H1338820  18.623  10.659   7.325
  239ETHO    C238821  18.691  10.567   7.140
  239ETHO   H2138822  18.767  10.581   7.060
  239ETHO   H2338823  18.709  10.464   7.177
  240ETHO    O138824  18.564  10.566   7.088
  240ETHO    C138825  18.555  10.458   6.994
  240ETHO   H1138826  18.555  10.361   7.048
  240ETHO   H1338827  18.642  10.453   6.925
  240ETHO    C238828  18.428  10.482   6.917
  240ETHO   H2138829  18.337  10.480   6.981
  240ETHO   H2338830  18.429  10.391   6.854
  241ETHO    O138831  18.422  10.596   6.833
  241ETHO    C138832  18.285  10.629   6.805
  241ETHO   H1138833  18.215  10.543   6.795
  241ETHO   H1338834  18.244  10.697   6.883
  241ETHO    C238835  18.279  10.714   6.679
  241ETHO   H2138836  18.170  10.708   6.656
  241ETHO   H2338837  18.338  10.678   6.592
  242ETHO    O138838  18.322  10.847   6.709
  242ETHO    C138839  18.294  10.938   6.600
  242ETHO   H1138840  18.309  10.895   6.498
  242ETHO   H1338841  18.360  11.027   6.594
  242ETHO    C238842  18.143  10.988   6.600
  242ETHO   H2138843  18.133  11.081   6.540
  242ETHO   H2338844  18.118  11.011   6.706
  243ETHO    O138845  18.047  10.892   6.547
  243ETHO    C138846  17.914  10.942   6.546
  243ETHO   H1138847  17.877  10.958   6.650
  243ETHO   H1338848  17.898  11.035   6.487
  243ETHO    C238849  17.825  10.839   6.475
  243ETHO   H2138850  17.880  10.815   6.381
  243ETHO   H2338851  17.727  10.886   6.449
  244ETHO    O138852  17.794  10.730   6.566
  244ETHO    C138853  17.662  10.739   6.621
  244ETHO   H1138854  17.587  10.717   6.542
  244ETHO   H1338855  17.638  10.845   6.645
  244ETHO    C238856  17.638  10.640   6.735
  244ETHO   H2138857  17.541  10.662   6.785
  244ETHO   H2338858  17.719  10.658   6.808
  245ETHO    O138859  17.634  10.499   6.697
  245ETHO    C138860  17.612  10.419   6.805
  245ETHO   H1138861  17.688  10.450   6.880
  245ETHO   H1338862  17.507  10.424   6.842
  245ETHO    C238863  17.619  10.281   6.738
  245ETHO   H2138864  17.721  10.272   6.696
  245ETHO   H2338865  17.540  10.275   6.660
  246ETHO    O138866  17.585  10.169   6.827
  246ETHO    C138867  17.624  10.186   6.961
  246ETHO   H1138868  17.548  10.251   7.008
  246ETHO   H1338869  17.726  10.232   6.964
  246ETHO    C238870  17.620  10.054   7.040
  246ETHO   H2138871  17.512  10.029   7.036
  246ETHO   H2338872  17.645  10.075   7.146
  247ETHO    O138873  17.705   9.957   6.978
  247ETHO    C138874  17.750   9.852   7.058
  247ETHO   H1138875  17.818   9.799   6.987
  247ETHO   H1338876  17.808   9.895   7.142
  247ETHO    C238877  17.650   9.762   7.116
  247ETHO   H2138878  17.579   9.731   7.035
  247ETHO   H2338879  17.694   9.668   7.155
  248ETHO    O138880  17.575   9.808   7.230
  248ETHO    C138881  17.498   9.705   7.294
  248ETHO   H1138882  17.451   9.629   7.227
  248ETHO   H1338883  17.565   9.664   7.373
  248ETHO    C238884  17.379   9.776   7.356
  248ETHO   H2138885  17.302   9.704   7.391
  248ETHO   H2338886  17.325   9.840   7.283
  249ETHO    O138887  17.422   9.859   7.464
  249ETHO    C138888  17.315   9.951   7.491
  249ETHO   H1138889  17.214   9.907   7.480
  249ETHO   H1338890  17.324   9.969   7.600
  249ETHO    C238891  17.320  10.082   7.404
  249ETHO   H2138892  17.422  10.107   7.367
  249ETHO   H2338893  17.296  10.164   7.475
  250ETHO    O138894  17.228  10.073   7.298
  250ETHO    C138895  17.225  10.189   7.223
  250ETHO   H1138896  17.242  10.279   7.286
  250ETHO   H1338897  17.312  10.184   7.153
  250ETHO    C238898  17.098  10.203   7.136
  250ETHO   H2138899  17.070  10.106   7.089
  250ETHO   H2338900  17.120  10.271   7.051
  251ETHO    O138901  16.997  10.255   7.214
  251ETHO    C138902  16.867  10.225   7.149
  251ETHO   H1138903  16.794  10.218   7.232
  251ETHO   H1338904  16.867  10.129   7.093
  251ETHO    C238905  16.827  10.339   7.061
  251ETHO   H2138906  16.833  10.430   7.125
  251ETHO   H2338907  16.719  10.326   7.039
  252ETHO    O138908  16.906  10.367   6.955
  252ETHO    C138909  16.877  10.271   6.847
  252ETHO   H1138910  16.930  10.175   6.862
  252ETHO   H1338911  16.768  10.250   6.845
  252ETHO    C238912  16.937  10.324   6.715
  252ETHO   H2138913  16.908  10.263   6.626
  252ETHO   H2338914  17.047  10.336   6.719
  253ETHO    O138915  16.869  10.443   6.705
  253ETHO    C138916  16.941  10.547   6.640
  253ETHO   H1138917  17.021  10.578   6.710
  253ETHO   H1338918  16.865  10.627   6.629
  253ETHO    C238919  16.996  10.507   6.503
  253ETHO   H2138920  16.991  10.599   6.441
  253ETHO   H2338921  16.923  10.442   6.449
  254ETHO    O138922  17.127  10.451   6.521
  254ETHO    C138923  17.170  10.383   6.411
  254ETHO   H1138924  17.113  10.421   6.323
  254ETHO   H1338925  17.277  10.405   6.389
  254ETHO    C238926  17.160  10.232   6.432
  254ETHO   H2138927  17.156  10.176   6.336
  254ETHO   H2338928  17.057  10.213   6.470
  255ETHO    O138929  17.262  10.172   6.516
  255ETHO    C138930  17.253  10.028   6.506
  255ETHO   H1138931  17.251  10.005   6.397
  255ETHO   H1338932  17.153   9.995   6.543
  255ETHO    C238933  17.363   9.953   6.585
  255ETHO   H2138934  17.437  10.023   6.627
  255ETHO   H2338935  17.416   9.879   6.521
  256ETHO    O138936  17.302   9.885   6.685
  256ETHO    C138937  17.288   9.963   6.805
  256ETHO   H1138938  17.393   9.988   6.833
  256ETHO   H1338939  17.233  10.056   6.779
  256ETHO    C238940  17.220   9.903   6.926
  256ETHO   H2138941  17.246   9.960   7.018
  256ETHO   H2338942  17.254   9.798   6.929
  257ETHO    O138943  17.077   9.915   6.902
  257ETHO    C138944  17.025   9.788   6.872
  257ETHO   H1138945  17.019   9.722   6.961
  257ETHO   H1338946  17.090   9.723   6.809
  257ETHO    C238947  16.895   9.779   6.803
  257ETHO   H2138948  16.817   9.847   6.843
  257ETHO   H2338949  16.876   9.671   6.819
  258ETHO    O138950  16.900   9.798   6.658
  258ETHO    C138951  16.876   9.933   6.612
  258ETHO   H1138952  16.784   9.972   6.662
  258ETHO   H1338953  16.968   9.982   6.649
  258ETHO    C238954  16.871   9.942   6.465
  258ETHO   H2138955  16.851  10.047   6.436
  258ETHO   H2338956  16.777   9.891   6.436
  259ETHO    O138957  16.987   9.887   6.402
  259ETHO    C138958  16.968   9.875   6.263
  259ETHO   H1138959  16.882   9.805   6.251
  259ETHO   H1338960  16.932   9.971   6.218
  259ETHO    C238961  17.096   9.794   6.206
  259ETHO   H2138962  17.083   9.760   6.101
  259ETHO   H2338963  17.110   9.709   6.276
  260ETHO    O138964  17.213   9.876   6.197
  260ETHO    C138965  17.323   9.788   6.177
  260ETHO   H1138966  17.350   9.746   6.276
  260ETHO   H1338967  17.300   9.711   6.100
  260ETHO    C238968  17.448   9.871   6.144
  260ETHO   H2138969  17.437   9.908   6.040
  260ETHO   H2338970  17.532   9.799   6.145
  261ETHO    O138971  17.472   9.976   6.240
  261ETHO    C138972  17.607   9.986   6.292
  261ETHO   H1138973  17.633   9.888   6.337
  261ETHO   H1338974  17.676  10.004   6.207
  261ETHO    C238975  17.607  10.111   6.380
  261ETHO   H2138976  17.702  10.130   6.434
  261ETHO   H2338977  17.523  10.112   6.452
  262ETHO    O138978  17.589  10.224   6.295
  262ETHO    C138979  17.573  10.348   6.369
  262ETHO   H1138980  17.656  10.345   6.442
  262ETHO   H1338981  17.476  10.365   6.420
  262ETHO    C238982  17.591  10.466   6.279
  262ETHO   H2138983  17.568  10.567   6.319
  262ETHO   H2338984  17.529  10.457   6.187
  263ETHO    O138985  17.726  10.475   6.231
  263ETHO    C138986  17.738  10.584   6.140
  263ETHO   H1138987  17.696  10.682   6.171
  263ETHO   H1338988  17.693  10.544   6.047
  263ETHO    C238989  17.882  10.608   6.102
  263ETHO   H2138990  17.938  10.659   6.183
  263ETHO   H2338991  17.872  10.671   6.011
  264ETHO    O138992  17.955  10.495   6.065
  264ETHO    C138993  18.089  10.504   6.015
  264ETHO   H1138994  18.138  10.409   6.046
  264ETHO   H1338995  18.136  10.586   6.074
  264ETHO    C238996  18.108  10.530   5.869
  264ETHO   H2138997  18.217  10.518   5.851
  264ETHO   H2338998  18.069  10.633   5.855
  265ETHO    O138999  18.052  10.436   5.781
  265ETHO    C139000  17.914  10.458   5.755
  265ETHO   H1139001  17.871  10.358   5.734
  265ETHO   H1339002  17.864  10.489   5.849
  265ETHO    C239003  17.901  10.559   5.635
  265ETHO   H2139004  17.949  10.654   5.669
  265ETHO   H2339005  17.792  10.583   5.625
  265ETHO    OZ39006  17.956  10.503   5.518
  265ETHO   HZ139007  17.887  10.480   5.455
    1ETHO    O139008  11.126  11.131  21.388
    1ETHO   HO139009  11.102  11.112  21.298
    1ETHO    C139010  11.266  11.134  21.384
    1ETHO   H1139011  11.310  11.032  21.378
    1ETHO   H1339012  11.295  11.189  21.476
    1ETHO    C239013  11.305  11.210  21.260
    1ETHO   H2139014  11.413  11.235  21.246
    1ETHO   H2339015  11.246  11.304  21.259
    2ETHO    O139016  11.260  11.148  21.136
    2ETHO    C139017  11.277  11.242  21.025
    2ETHO   H1139018  11.214  11.333  21.032
    2ETHO   H1339019  11.382  11.278  21.017
    2ETHO    C239020  11.254  11.176  20.884
    2ETHO   H2139021  11.257  11.253  20.804
    2ETHO   H2339022  11.157  11.122  20.878
    3ETHO    O139023  11.359  11.078  20.858
    3ETHO    C139024  11.357  11.025  20.727
    3ETHO   H1139025  11.352  11.115  20.662
    3ETHO   H1339026  11.264  10.964  20.729
    3ETHO    C239027  11.463  10.917  20.701
    3ETHO   H2139028  11.445  10.856  20.609
    3ETHO   H2339029  11.483  10.844  20.783
    4ETHO    O139030  11.582  10.987  20.679
    4ETHO    C139031  11.679  10.896  20.624
    4ETHO   H1139032  11.693  10.810  20.693
    4ETHO   H1339033  11.641  10.864  20.525
    4ETHO    C239034  11.829  10.955  20.609
    4ETHO   H2139035  11.895  10.869  20.586
    4ETHO   H2339036  11.858  11.010  20.701
    5ETHO    O139037  11.830  11.034  20.493
    5ETHO    C139038  11.959  11.085  20.469
    5ETHO   H1139039  11.986  11.163  20.544
    5ETHO   H1339040  12.033  11.002  20.479
    5ETHO    C239041  11.981  11.143  20.322
    5ETHO   H2139042  12.080  11.187  20.298
    5ETHO   H2339043  11.899  11.211  20.292
    6ETHO    O139044  11.995  11.032  20.236
    6ETHO    C139045  12.002  11.068  20.096
    6ETHO   H1139046  11.956  11.168  20.074
    6ETHO   H1339047  12.111  11.069  20.076
    6ETHO    C239048  11.927  10.969  20.008
    6ETHO   H2139049  11.853  10.915  20.072
    6ETHO   H2339050  12.003  10.900  19.966
    7ETHO    O139051  11.870  11.033  19.892
    7ETHO    C139052  11.782  10.950  19.831
    7ETHO   H1139053  11.825  10.848  19.837
    7ETHO   H1339054  11.691  10.953  19.895
    7ETHO    C239055  11.742  10.984  19.679
    7ETHO   H2139056  11.708  11.089  19.670
    7ETHO   H2339057  11.659  10.920  19.644
    8ETHO    O139058  11.863  10.961  19.594
    8ETHO    C139059  11.845  11.027  19.475
    8ETHO   H1139060  11.830  11.135  19.497
    8ETHO   H1339061  11.750  10.988  19.434
    8ETHO    C239062  11.948  11.001  19.370
    8ETHO   H2139063  11.938  11.072  19.285
    8ETHO   H2339064  11.953  10.897  19.332
    9ETHO    O139065  12.075  11.039  19.414
    9ETHO    C139066  12.096  11.175  19.442
    9ETHO   H1139067  12.084  11.226  19.344
    9ETHO   H1339068  12.025  11.219  19.516
    9ETHO    C239069  12.236  11.206  19.497
    9ETHO   H2139070  12.236  11.146  19.590
    9ETHO   H2339071  12.244  11.314  19.523
   10ETHO    O139072  12.350  11.167  19.420
   10ETHO    C139073  12.468  11.219  19.475
   10ETHO   H1139074  12.478  11.191  19.582
   10ETHO   H1339075  12.458  11.329  19.477
   10ETHO    C239076  12.595  11.175  19.403
   10ETHO   H2139077  12.682  11.228  19.448
   10ETHO   H2339078  12.599  11.184  19.293
   11ETHO    O139079  12.624  11.042  19.449
   11ETHO    C139080  12.719  10.976  19.359
   11ETHO   H1139081  12.681  10.966  19.255
   11ETHO   H1339082  12.809  11.040  19.369
   11ETHO    C239083  12.734  10.829  19.400
   11ETHO   H2139084  12.814  10.780  19.340
   11ETHO   H2339085  12.749  10.822  19.510
   12ETHO    O139086  12.613  10.761  19.364
   12ETHO    C139087  12.610  10.621  19.395
   12ETHO   H1139088  12.616  10.605  19.505
   12ETHO   H1339089  12.695  10.565  19.352
   12ETHO    C239090  12.475  10.562  19.365
   12ETHO   H2139091  12.401  10.630  19.412
   12ETHO   H2339092  12.469  10.459  19.405
   13ETHO    O139093  12.448  10.550  19.222
   13ETHO    C139094  12.317  10.489  19.205
   13ETHO   H1139095  12.305  10.389  19.252
   13ETHO   H1339096  12.242  10.557  19.252
   13ETHO    C239097  12.290  10.479  19.049
   13ETHO   H2139098  12.199  10.419  19.029
   13ETHO   H2339099  12.372  10.417  19.007
   14ETHO    O139100  12.268  10.605  18.982
   14ETHO    C139101  12.249  10.592  18.842
   14ETHO   H1139102  12.152  10.538  18.835
   14ETHO   H1339103  12.331  10.528  18.802
   14ETHO    C239104  12.226  10.731  18.781
   14ETHO   H2139105  12.156  10.785  18.847
   14ETHO   H2339106  12.182  10.725  18.679
   15ETHO    O139107  12.356  10.799  18.770
   15ETHO    C139108  12.359  10.939  18.810
   15ETHO   H1139109  12.272  10.992  18.766
   15ETHO   H1339110  12.352  10.945  18.920
   15ETHO    C239111  12.490  11.002  18.753
   15ETHO   H2139112  12.506  11.091  18.817
   15ETHO   H2339113  12.581  10.941  18.770
   16ETHO    O139114  12.489  11.032  18.611
   16ETHO    C139115  12.586  11.136  18.574
   16ETHO   H1139116  12.542  11.236  18.592
   16ETHO   H1339117  12.673  11.142  18.643
   16ETHO    C239118  12.645  11.118  18.428
   16ETHO   H2139119  12.712  11.204  18.406
   16ETHO   H2339120  12.566  11.113  18.350
   17ETHO    O139121  12.716  10.995  18.426
   17ETHO    C139122  12.799  10.987  18.304
   17ETHO   H1139123  12.741  10.968  18.212
   17ETHO   H1339124  12.846  11.088  18.294
   17ETHO    C239125  12.908  10.877  18.311
   17ETHO   H2139126  12.954  10.874  18.210
   17ETHO   H2339127  12.862  10.779  18.335
   18ETHO    O139128  13.006  10.901  18.410
   18ETHO    C139129  13.128  10.823  18.392
   18ETHO   H1139130  13.165  10.838  18.288
   18ETHO   H1339131  13.212  10.857  18.456
   18ETHO    C239132  13.133  10.667  18.424
   18ETHO   H2139133  13.207  10.617  18.357
   18ETHO   H2339134  13.034  10.632  18.388
   19ETHO    O139135  13.150  10.622  18.559
   19ETHO    C139136  13.075  10.701  18.653
   19ETHO   H1139137  12.975  10.731  18.616
   19ETHO   H1339138  13.134  10.792  18.677
   19ETHO    C239139  13.066  10.617  18.787
   19ETHO   H2139140  12.996  10.533  18.767
   19ETHO   H2339141  13.008  10.678  18.860
   20ETHO    O139142  13.191  10.573  18.841
   20ETHO    C139143  13.276  10.676  18.902
   20ETHO   H1139144  13.313  10.743  18.821
   20ETHO   H1339145  13.214  10.725  18.980
   20ETHO    C239146  13.398  10.617  18.968
   20ETHO   H2139147  13.357  10.528  19.020
   20ETHO   H2339148  13.419  10.693  19.046
   21ETHO    O139149  13.508  10.586  18.881
   21ETHO    C139150  13.593  10.485  18.939
   21ETHO   H1139151  13.552  10.468  19.041
   21ETHO   H1339152  13.696  10.521  18.957
   21ETHO    C239153  13.586  10.348  18.862
   21ETHO   H2139154  13.481  10.332  18.829
   21ETHO   H2339155  13.606  10.265  18.933
   22ETHO    O139156  13.674  10.333  18.745
   22ETHO    C139157  13.675  10.190  18.717
   22ETHO   H1139158  13.698  10.134  18.810
   22ETHO   H1339159  13.574  10.151  18.693
   22ETHO    C239160  13.767  10.142  18.607
   22ETHO   H2139161  13.765  10.031  18.603
   22ETHO   H2339162  13.732  10.180  18.508
   23ETHO    O139163  13.899  10.179  18.633
   23ETHO    C139164  13.981  10.103  18.543
   23ETHO   H1139165  13.945  10.121  18.440
   23ETHO   H1339166  13.971   9.993  18.547
   23ETHO    C239167  14.131  10.137  18.563
   23ETHO   H2139168  14.132  10.248  18.555
   23ETHO   H2339169  14.198  10.095  18.485
   24ETHO    O139170  14.165  10.096  18.693
   24ETHO    C139171  14.287  10.150  18.742
   24ETHO   H1139172  14.354  10.148  18.653
   24ETHO   H1339173  14.279  10.258  18.767
   24ETHO    C239174  14.330  10.065  18.864
   24ETHO   H2139175  14.253  10.083  18.942
   24ETHO   H2339176  14.431  10.106  18.883
   25ETHO    O139177  14.356   9.926  18.834
   25ETHO    C139178  14.349   9.863  18.960
   25ETHO   H1139179  14.246   9.871  19.002
   25ETHO   H1339180  14.413   9.904  19.041
   25ETHO    C239181  14.378   9.712  18.956
   25ETHO   H2139182  14.317   9.665  18.876
   25ETHO   H2339183  14.356   9.680  19.060
   26ETHO    O139184  14.517   9.705  18.931
   26ETHO    C139185  14.569   9.577  18.894
   26ETHO   H1139186  14.545   9.505  18.975
   26ETHO   H1339187  14.534   9.551  18.792
   26ETHO    C239188  14.727   9.589  18.899
   26ETHO   H2139189  14.771   9.487  18.898
   26ETHO   H2339190  14.757   9.627  18.999
   27ETHO    O139191  14.787   9.648  18.783
   27ETHO    C139192  14.926   9.674  18.807
   27ETHO   H1139193  14.927   9.719  18.909
   27ETHO   H1339194  14.966   9.759  18.749
   27ETHO    C239195  15.013   9.547  18.795
   27ETHO   H2139196  15.031   9.508  18.692
   27ETHO   H2339197  14.976   9.461  18.853
   28ETHO    O139198  15.146   9.584  18.826
   28ETHO    C139199  15.221   9.490  18.902
   28ETHO   H1139200  15.160   9.480  18.994
   28ETHO   H1339201  15.241   9.395  18.848
   28ETHO    C239202  15.359   9.542  18.946
   28ETHO   H2139203  15.426   9.539  18.857
   28ETHO   H2339204  15.399   9.472  19.023
   29ETHO    O139205  15.370   9.669  19.013
   29ETHO    C139206  15.503   9.721  19.021
   29ETHO   H1139207  15.543   9.739  18.918
   29ETHO   H1339208  15.571   9.645  19.067
   29ETHO    C239209  15.517   9.848  19.107
   29ETHO   H2139210  15.622   9.884  19.101
   29ETHO   H2339211  15.503   9.838  19.217
   30ETHO    O139212  15.439   9.942  19.046
   30ETHO    C139213  15.448  10.072  19.115
   30ETHO   H1139214  15.396  10.061  19.213
   30ETHO   H1339215  15.548  10.088  19.160
   30ETHO    C239216  15.400  10.194  19.033
   30ETHO   H2139217  15.375  10.275  19.105
   30ETHO   H2339218  15.308  10.173  18.975
   31ETHO    O139219  15.504  10.243  18.949
   31ETHO    C139220  15.440  10.329  18.856
   31ETHO   H1139221  15.513  10.359  18.777
   31ETHO   H1339222  15.366  10.273  18.794
   31ETHO    C239223  15.382  10.463  18.909
   31ETHO   H2139224  15.310  10.455  18.993
   31ETHO   H2339225  15.328  10.504  18.821
   32ETHO    O139226  15.484  10.554  18.949
   32ETHO    C139227  15.439  10.628  19.061
   32ETHO   H1139228  15.351  10.691  19.039
   32ETHO   H1339229  15.424  10.559  19.147
   32ETHO    C239230  15.562  10.712  19.104
   32ETHO   H2139231  15.581  10.789  19.026
   32ETHO   H2339232  15.652  10.646  19.104
   33ETHO    O139233  15.534  10.768  19.234
   33ETHO    C139234  15.594  10.682  19.336
   33ETHO   H1139235  15.565  10.575  19.322
   33ETHO   H1339236  15.702  10.706  19.332
   33ETHO    C239237  15.554  10.731  19.480
   33ETHO   H2139238  15.609  10.669  19.554
   33ETHO   H2339239  15.449  10.702  19.503
   34ETHO    O139240  15.596  10.868  19.496
   34ETHO    C139241  15.553  10.916  19.622
   34ETHO   H1139242  15.631  10.974  19.674
   34ETHO   H1339243  15.549  10.829  19.691
   34ETHO    C239244  15.420  10.990  19.614
   34ETHO   H2139245  15.432  11.066  19.534
   34ETHO   H2339246  15.394  11.058  19.698
   35ETHO    O139247  15.311  10.898  19.582
   35ETHO    C139248  15.188  10.933  19.646
   35ETHO   H1139249  15.207  10.961  19.752
   35ETHO   H1339250  15.142  11.017  19.590
   35ETHO    C239251  15.092  10.819  19.633
   35ETHO   H2139252  15.144  10.734  19.683
   35ETHO   H2339253  15.069  10.786  19.529
   36ETHO    O139254  14.969  10.848  19.686
   36ETHO    C139255  14.883  10.734  19.681
   36ETHO   H1139256  14.942  10.640  19.694
   36ETHO   H1339257  14.820  10.719  19.591
   36ETHO    C239258  14.787  10.737  19.805
   36ETHO   H2139259  14.761  10.638  19.848
   36ETHO   H2339260  14.694  10.787  19.770
   37ETHO    O139261  14.836  10.819  19.919
   37ETHO    C139262  14.940  10.747  19.993
   37ETHO   H1139263  14.911  10.642  20.015
   37ETHO   H1339264  15.029  10.737  19.926
   37ETHO    C239265  14.980  10.813  20.126
   37ETHO   H2139266  15.001  10.921  20.107
   37ETHO   H2339267  15.066  10.755  20.165
   38ETHO    O139268  14.872  10.807  20.218
   38ETHO    C139269  14.905  10.872  20.338
   38ETHO   H1139270  14.933  10.979  20.322
   38ETHO   H1339271  14.997  10.831  20.384
   38ETHO    C239272  14.776  10.863  20.435
   38ETHO   H2139273  14.684  10.887  20.378
   38ETHO   H2339274  14.793  10.941  20.513
   39ETHO    O139275  14.780  10.735  20.496
   39ETHO    C139276  14.682  10.726  20.598
   39ETHO   H1139277  14.714  10.798  20.676
   39ETHO   H1339278  14.585  10.754  20.552
   39ETHO    C239279  14.675  10.587  20.649
   39ETHO   H2139280  14.775  10.551  20.684
   39ETHO   H2339281  14.646  10.514  20.570
   40ETHO    O139282  14.570  10.586  20.746
   40ETHO    C139283  14.559  10.461  20.814
   40ETHO   H1139284  14.658  10.445  20.862
   40ETHO   H1339285  14.533  10.372  20.753
   40ETHO    C239286  14.455  10.469  20.924
   40ETHO   H2139287  14.470  10.557  20.990
   40ETHO   H2339288  14.478  10.376  20.981
   41ETHO    O139289  14.314  10.445  20.882
   41ETHO    C139290  14.229  10.429  20.999
   41ETHO   H1139291  14.216  10.320  21.016
   41ETHO   H1339292  14.280  10.469  21.089
   41ETHO    C239293  14.089  10.492  20.996
   41ETHO   H2139294  14.039  10.458  21.089
   41ETHO   H2339295  14.027  10.460  20.909
   42ETHO    O139296  14.106  10.632  21.003
   42ETHO    C139297  13.980  10.699  20.967
   42ETHO   H1139298  13.934  10.647  20.880
   42ETHO   H1339299  13.911  10.675  21.050
   42ETHO    C239300  13.987  10.850  20.945
   42ETHO   H2139301  14.050  10.896  21.024
   42ETHO   H2339302  13.887  10.894  20.960
   43ETHO    O139303  14.053  10.874  20.825
   43ETHO    C139304  13.968  10.870  20.708
   43ETHO   H1139305  13.889  10.792  20.718
   43ETHO   H1339306  13.931  10.972  20.683
   43ETHO    C239307  14.059  10.821  20.595
   43ETHO   H2139308  14.161  10.861  20.618
   43ETHO   H2339309  14.031  10.871  20.500
   44ETHO    O139310  14.075  10.681  20.567
   44ETHO    C139311  14.170  10.609  20.650
   44ETHO   H1139312  14.221  10.673  20.726
   44ETHO   H1339313  14.114  10.545  20.721
   44ETHO    C239314  14.254  10.526  20.548
   44ETHO   H2139315  14.197  10.444  20.499
   44ETHO   H2339316  14.337  10.481  20.607
   45ETHO    O139317  14.312  10.621  20.457
   45ETHO    C139318  14.400  10.554  20.370
   45ETHO   H1139319  14.335  10.479  20.320
   45ETHO   H1339320  14.469  10.491  20.430
   45ETHO    C239321  14.479  10.632  20.274
   45ETHO   H2139322  14.573  10.578  20.255
   45ETHO   H2339323  14.506  10.735  20.306
   46ETHO    O139324  14.409  10.632  20.148
   46ETHO    C139325  14.466  10.720  20.055
   46ETHO   H1139326  14.428  10.819  20.089
   46ETHO   H1339327  14.575  10.720  20.076
   46ETHO    C239328  14.431  10.697  19.909
   46ETHO   H2139329  14.450  10.791  19.854
   46ETHO   H2339330  14.326  10.665  19.888
   47ETHO    O139331  14.499  10.587  19.848
   47ETHO    C139332  14.465  10.559  19.711
   47ETHO   H1139333  14.472  10.648  19.645
   47ETHO   H1339334  14.364  10.513  19.705
   47ETHO    C239335  14.579  10.477  19.652
   47ETHO   H2139336  14.619  10.393  19.714
   47ETHO   H2339337  14.668  10.537  19.624
   48ETHO    O139338  14.538  10.413  19.528
   48ETHO    C139339  14.491  10.278  19.547
   48ETHO   H1139340  14.444  10.265  19.647
   48ETHO   H1339341  14.409  10.255  19.476
   48ETHO    C239342  14.595  10.164  19.540
   48ETHO   H2139343  14.690  10.174  19.596
   48ETHO   H2339344  14.550  10.066  19.566
   49ETHO    O139345  14.656  10.146  19.411
   49ETHO    C139346  14.698  10.010  19.389
   49ETHO   H1139347  14.610   9.949  19.360
   49ETHO   H1339348  14.751   9.957  19.470
   49ETHO    C239349  14.795   9.999  19.272
   49ETHO   H2139350  14.853   9.904  19.269
   49ETHO   H2339351  14.869  10.083  19.280
   50ETHO    O139352  14.728  10.020  19.155
   50ETHO    C139353  14.807   9.995  19.045
   50ETHO   H1139354  14.899  10.056  19.056
   50ETHO   H1339355  14.845   9.891  19.050
   50ETHO    C239356  14.748  10.030  18.905
   50ETHO   H2139357  14.643   9.996  18.893
   50ETHO   H2339358  14.804   9.970  18.830
   51ETHO    O139359  14.764  10.172  18.873
   51ETHO    C139360  14.697  10.212  18.753
   51ETHO   H1139361  14.588  10.191  18.750
   51ETHO   H1339362  14.754  10.157  18.675
   51ETHO    C239363  14.725  10.360  18.726
   51ETHO   H2139364  14.710  10.396  18.622
   51ETHO   H2339365  14.832  10.371  18.753
   52ETHO    O139366  14.638  10.432  18.809
   52ETHO    C139367  14.634  10.576  18.781
   52ETHO   H1139368  14.720  10.631  18.825
   52ETHO   H1339369  14.624  10.590  18.671
   52ETHO    C239370  14.512  10.646  18.845
   52ETHO   H2139371  14.539  10.753  18.834
   52ETHO   H2339372  14.495  10.618  18.952
   53ETHO    O139373  14.394  10.621  18.774
   53ETHO    C139374  14.275  10.644  18.855
   53ETHO   H1139375  14.290  10.595  18.954
   53ETHO   H1339376  14.278  10.754  18.870
   53ETHO    C239377  14.148  10.591  18.798
   53ETHO   H2139378  14.081  10.559  18.881
   53ETHO   H2339379  14.169  10.502  18.735
   54ETHO    O139380  14.087  10.700  18.730
   54ETHO    C139381  13.944  10.714  18.752
   54ETHO   H1139382  13.935  10.717  18.863
   54ETHO   H1339383  13.909  10.812  18.714
   54ETHO    C239384  13.860  10.595  18.689
   54ETHO   H2139385  13.752  10.608  18.709
   54ETHO   H2339386  13.891  10.500  18.737
   55ETHO    O139387  13.874  10.602  18.551
   55ETHO    C139388  13.807  10.493  18.487
   55ETHO   H1139389  13.835  10.392  18.526
   55ETHO   H1339390  13.700  10.508  18.513
   55ETHO    C239391  13.815  10.493  18.336
   55ETHO   H2139392  13.921  10.478  18.305
   55ETHO   H2339393  13.756  10.405  18.302
   56ETHO    O139394  13.748  10.616  18.293
   56ETHO    C139395  13.764  10.635  18.150
   56ETHO   H1139396  13.730  10.540  18.105
   56ETHO   H1339397  13.873  10.647  18.133
   56ETHO    C239398  13.679  10.754  18.114
   56ETHO   H2139399  13.576  10.743  18.154
   56ETHO   H2339400  13.654  10.775  18.007
   57ETHO    O139401  13.738  10.867  18.180
   57ETHO    C139402  13.704  10.988  18.105
   57ETHO   H1139403  13.785  10.992  18.030
   57ETHO   H1339404  13.605  10.973  18.058
   57ETHO    C239405  13.730  11.113  18.193
   57ETHO   H2139406  13.729  11.207  18.134
   57ETHO   H2339407  13.834  11.104  18.229
   58ETHO    O139408  13.657  11.136  18.311
   58ETHO    C139409  13.714  11.239  18.395
   58ETHO   H1139410  13.691  11.340  18.354
   58ETHO   H1339411  13.824  11.233  18.404
   58ETHO    C239412  13.645  11.236  18.534
   58ETHO   H2139413  13.536  11.216  18.519
   58ETHO   H2339414  13.656  11.337  18.577
   59ETHO    O139415  13.724  11.151  18.621
   59ETHO    C139416  13.671  11.015  18.633
   59ETHO   H1139417  13.613  10.999  18.540
   59ETHO   H1339418  13.753  10.941  18.636
   59ETHO    C239419  13.578  11.002  18.750
   59ETHO   H2139420  13.522  10.906  18.744
   59ETHO   H2339421  13.506  11.086  18.744
   60ETHO    O139422  13.652  11.005  18.874
   60ETHO    C139423  13.581  10.943  18.980
   60ETHO   H1139424  13.543  10.841  18.956
   60ETHO   H1339425  13.513  11.018  19.026
   60ETHO    C239426  13.665  10.900  19.097
   60ETHO   H2139427  13.599  10.856  19.175
   60ETHO   H2339428  13.726  10.983  19.138
   61ETHO    O139429  13.757  10.798  19.059
   61ETHO    C139430  13.801  10.709  19.160
   61ETHO   H1139431  13.711  10.654  19.196
   61ETHO   H1339432  13.879  10.644  19.115
   61ETHO    C239433  13.874  10.777  19.276
   61ETHO   H2139434  13.841  10.716  19.363
   61ETHO   H2339435  13.849  10.883  19.294
   62ETHO    O139436  14.015  10.773  19.262
   62ETHO    C139437  14.081  10.676  19.346
   62ETHO   H1139438  14.019  10.585  19.336
   62ETHO   H1339439  14.061  10.697  19.453
   62ETHO    C239440  14.231  10.672  19.326
   62ETHO   H2139441  14.262  10.651  19.221
   62ETHO   H2339442  14.270  10.580  19.374
   63ETHO    O139443  14.296  10.787  19.377
   63ETHO    C139444  14.440  10.775  19.356
   63ETHO   H1139445  14.489  10.687  19.403
   63ETHO   H1339446  14.454  10.766  19.246
   63ETHO    C239447  14.505  10.901  19.408
   63ETHO   H2139448  14.463  10.980  19.343
   63ETHO   H2339449  14.610  10.909  19.376
   64ETHO    O139450  14.500  10.908  19.545
   64ETHO    C139451  14.523  11.039  19.582
   64ETHO   H1139452  14.457  11.117  19.539
   64ETHO   H1339453  14.623  11.058  19.538
   64ETHO    C239454  14.527  11.068  19.733
   64ETHO   H2139455  14.589  11.159  19.746
   64ETHO   H2339456  14.577  10.988  19.793
   65ETHO    O139457  14.396  11.091  19.794
   65ETHO    C139458  14.409  11.174  19.911
   65ETHO   H1139459  14.480  11.126  19.982
   65ETHO   H1339460  14.435  11.279  19.885
   65ETHO    C239461  14.271  11.175  19.977
   65ETHO   H2139462  14.266  11.204  20.084
   65ETHO   H2339463  14.248  11.067  19.979
   66ETHO    O139464  14.174  11.243  19.903
   66ETHO    C139465  14.041  11.245  19.963
   66ETHO   H1139466  14.037  11.318  20.047
   66ETHO   H1339467  14.010  11.147  20.005
   66ETHO    C239468  13.928  11.291  19.869
   66ETHO   H2139469  13.831  11.280  19.922
   66ETHO   H2339470  13.913  11.218  19.787
   67ETHO    O139471  13.950  11.422  19.813
   67ETHO    C139472  13.830  11.459  19.734
   67ETHO   H1139473  13.861  11.551  19.680
   67ETHO   H1339474  13.817  11.379  19.659
   67ETHO    C239475  13.703  11.501  19.803
   67ETHO   H2139476  13.650  11.411  19.842
   67ETHO   H2339477  13.630  11.545  19.732
   68ETHO    O139478  13.733  11.591  19.910
   68ETHO    C139479  13.765  11.722  19.868
   68ETHO   H1139480  13.857  11.735  19.808
   68ETHO   H1339481  13.686  11.760  19.800
   68ETHO    C239482  13.754  11.810  19.991
   68ETHO   H2139483  13.808  11.901  19.959
   68ETHO   H2339484  13.811  11.775  20.080
   69ETHO    O139485  13.618  11.847  20.016
   69ETHO    C139486  13.612  11.955  20.105
   69ETHO   H1139487  13.678  11.936  20.192
   69ETHO   H1339488  13.657  12.038  20.047
   69ETHO    C239489  13.474  11.989  20.145
   69ETHO   H2139490  13.399  11.974  20.065
   69ETHO   H2339491  13.470  12.094  20.181
   70ETHO    O139492  13.445  11.905  20.253
   70ETHO    C139493  13.309  11.928  20.301
   70ETHO   H1139494  13.293  12.037  20.308
   70ETHO   H1339495  13.239  11.895  20.222
   70ETHO    C239496  13.271  11.854  20.425
   70ETHO   H2139497  13.317  11.753  20.421
   70ETHO   H2339498  13.160  11.854  20.439
   71ETHO    O139499  13.328  11.914  20.537
   71ETHO    C139500  13.267  11.859  20.655
   71ETHO   H1139501  13.219  11.761  20.632
   71ETHO   H1339502  13.199  11.940  20.687
   71ETHO    C239503  13.369  11.856  20.768
   71ETHO   H2139504  13.312  11.840  20.862
   71ETHO   H2339505  13.423  11.953  20.777
   72ETHO    O139506  13.447  11.740  20.738
   72ETHO    C139507  13.582  11.767  20.720
   72ETHO   H1139508  13.582  11.851  20.648
   72ETHO   H1339509  13.626  11.796  20.818
   72ETHO    C239510  13.669  11.659  20.645
   72ETHO   H2139511  13.759  11.714  20.611
   72ETHO   H2339512  13.613  11.632  20.553
   73ETHO    O139513  13.688  11.538  20.711
   73ETHO    C139514  13.771  11.443  20.655
   73ETHO   H1139515  13.851  11.496  20.599
   73ETHO   H1339516  13.717  11.378  20.583
   73ETHO    C239517  13.855  11.365  20.751
   73ETHO   H2139518  13.915  11.416  20.830
   73ETHO   H2339519  13.941  11.313  20.704
   74ETHO    O139520  13.776  11.266  20.813
   74ETHO    C139521  13.853  11.178  20.899
   74ETHO   H1139522  13.789  11.091  20.925
   74ETHO   H1339523  13.943  11.141  20.845
   74ETHO    C239524  13.879  11.238  21.037
   74ETHO   H2139525  13.935  11.332  21.020
   74ETHO   H2339526  13.932  11.165  21.101
   75ETHO    O139527  13.762  11.274  21.108
   75ETHO    C139528  13.777  11.334  21.240
   75ETHO   H1139529  13.790  11.444  21.235
   75ETHO   H1339530  13.875  11.300  21.280
   75ETHO    C239531  13.678  11.300  21.356
   75ETHO   H2139532  13.577  11.288  21.313
   75ETHO   H2339533  13.683  11.382  21.431
   76ETHO    O139534  13.715  11.179  21.420
   76ETHO    C139535  13.618  11.138  21.517
   76ETHO   H1139536  13.594  11.223  21.584
   76ETHO   H1339537  13.532  11.106  21.455
   76ETHO    C239538  13.672  11.024  21.608
   76ETHO   H2139539  13.596  11.004  21.686
   76ETHO   H2339540  13.770  11.061  21.647
   77ETHO    O139541  13.699  10.905  21.524
   77ETHO    C139542  13.727  10.790  21.609
   77ETHO   H1139543  13.630  10.760  21.655
   77ETHO   H1339544  13.796  10.820  21.690
   77ETHO    C239545  13.779  10.667  21.530
   77ETHO   H2139546  13.801  10.570  21.581
   77ETHO   H2339547  13.867  10.698  21.471
   78ETHO    O139548  13.672  10.662  21.426
   78ETHO    C139549  13.729  10.599  21.310
   78ETHO   H1139550  13.820  10.648  21.268
   78ETHO   H1339551  13.756  10.496  21.340
   78ETHO    C239552  13.629  10.593  21.200
   78ETHO   H2139553  13.620  10.692  21.151
   78ETHO   H2339554  13.533  10.554  21.239
   79ETHO    O139555  13.677  10.501  21.102
   79ETHO    C139556  13.591  10.492  20.987
   79ETHO   H1139557  13.607  10.388  20.952
   79ETHO   H1339558  13.487  10.504  21.023
   79ETHO    C239559  13.623  10.587  20.869
   79ETHO   H2139560  13.570  10.564  20.774
   79ETHO   H2339561  13.730  10.567  20.848
   80ETHO    O139562  13.615  10.723  20.911
   80ETHO    C139563  13.478  10.773  20.913
   80ETHO   H1139564  13.402  10.700  20.877
   80ETHO   H1339565  13.458  10.792  21.021
   80ETHO    C239566  13.464  10.914  20.845
   80ETHO   H2139567  13.553  10.976  20.866
   80ETHO   H2339568  13.375  10.965  20.887
   81ETHO    O139569  13.446  10.893  20.705
   81ETHO    C139570  13.447  11.013  20.632
   81ETHO   H1139571  13.520  11.084  20.676
   81ETHO   H1339572  13.481  10.990  20.529
   81ETHO    C239573  13.307  11.072  20.639
   81ETHO   H2139574  13.272  11.086  20.743
   81ETHO   H2339575  13.319  11.174  20.596
   82ETHO    O139576  13.212  11.008  20.552
   82ETHO    C139577  13.108  11.090  20.511
   82ETHO   H1139578  13.144  11.176  20.451
   82ETHO   H1339579  13.049  11.139  20.592
   82ETHO    C239580  12.996  11.012  20.431
   82ETHO   H2139581  12.916  11.072  20.381
   82ETHO   H2339582  12.948  10.937  20.498
   83ETHO    O139583  13.054  10.948  20.312
   83ETHO    C139584  12.963  10.851  20.266
   83ETHO   H1139585  12.923  10.783  20.344
   83ETHO   H1339586  12.889  10.911  20.209
   83ETHO    C239587  13.037  10.773  20.160
   83ETHO   H2139588  12.969  10.695  20.118
   83ETHO   H2339589  13.120  10.716  20.207
   84ETHO    O139590  13.085  10.851  20.054
   84ETHO    C139591  13.195  10.790  19.984
   84ETHO   H1139592  13.162  10.688  19.955
   84ETHO   H1339593  13.274  10.780  20.061
   84ETHO    C239594  13.235  10.862  19.855
   84ETHO   H2139595  13.314  10.807  19.799
   84ETHO   H2339596  13.282  10.955  19.893
   85ETHO    O139597  13.135  10.882  19.761
   85ETHO    C139598  13.188  10.930  19.636
   85ETHO   H1139599  13.265  11.009  19.648
   85ETHO   H1339600  13.240  10.838  19.602
   85ETHO    C239601  13.086  10.977  19.529
   85ETHO   H2139602  12.992  10.919  19.516
   85ETHO   H2339603  13.134  10.960  19.430
   86ETHO    O139604  13.058  11.116  19.540
   86ETHO    C139605  12.963  11.135  19.641
   86ETHO   H1139606  13.000  11.100  19.740
   86ETHO   H1339607  12.880  11.070  19.605
   86ETHO    C239608  12.920  11.283  19.649
   86ETHO   H2139609  13.002  11.340  19.697
   86ETHO   H2339610  12.836  11.295  19.722
   87ETHO    O139611  12.898  11.343  19.523
   87ETHO    C139612  12.840  11.476  19.540
   87ETHO   H1139613  12.731  11.471  19.555
   87ETHO   H1339614  12.887  11.530  19.625
   87ETHO    C239615  12.855  11.587  19.420
   87ETHO   H2139616  12.955  11.566  19.375
   87ETHO   H2339617  12.840  11.684  19.470
   88ETHO    O139618  12.760  11.557  19.314
   88ETHO    C139619  12.743  11.663  19.220
   88ETHO   H1139620  12.759  11.762  19.268
   88ETHO   H1339621  12.636  11.670  19.192
   88ETHO    C239622  12.824  11.649  19.092
   88ETHO   H2139623  12.782  11.726  19.024
   88ETHO   H2339624  12.809  11.546  19.052
   89ETHO    O139625  12.959  11.668  19.120
   89ETHO    C139626  13.033  11.691  19.001
   89ETHO   H1139627  13.137  11.661  19.025
   89ETHO   H1339628  13.001  11.608  18.934
   89ETHO    C239629  13.028  11.828  18.930
   89ETHO   H2139630  12.922  11.860  18.918
   89ETHO   H2339631  13.082  11.830  18.833
   90ETHO    O139632  13.084  11.923  19.020
   90ETHO    C139633  13.096  12.056  18.966
   90ETHO   H1139634  13.178  12.099  19.027
   90ETHO   H1339635  13.147  12.056  18.867
   90ETHO    C239636  12.969  12.145  18.960
   90ETHO   H2139637  12.995  12.248  18.929
   90ETHO   H2339638  12.923  12.134  19.061
   91ETHO    O139639  12.881  12.095  18.860
   91ETHO    C139640  12.749  12.151  18.882
   91ETHO   H1139641  12.720  12.108  18.980
   91ETHO   H1339642  12.761  12.261  18.889
   91ETHO    C239643  12.643  12.117  18.773
   91ETHO   H2139644  12.543  12.140  18.815
   91ETHO   H2339645  12.649  12.006  18.765
   92ETHO    O139646  12.669  12.179  18.645
   92ETHO    C139647  12.580  12.124  18.555
   92ETHO   H1139648  12.611  12.019  18.535
   92ETHO   H1339649  12.479  12.115  18.601
   92ETHO    C239650  12.562  12.209  18.428
   92ETHO   H2139651  12.559  12.319  18.441
   92ETHO   H2339652  12.472  12.178  18.370
   93ETHO    O139653  12.676  12.192  18.347
   93ETHO    C139654  12.689  12.268  18.229
   93ETHO   H1139655  12.716  12.372  18.255
   93ETHO   H1339656  12.589  12.268  18.180
   93ETHO    C239657  12.798  12.215  18.140
   93ETHO   H2139658  12.882  12.172  18.199
   93ETHO   H2339659  12.836  12.295  18.073
   94ETHO    O139660  12.746  12.112  18.059
   94ETHO    C139661  12.836  12.022  18.005
   94ETHO   H1139662  12.909  12.087  17.952
   94ETHO   H1339663  12.870  11.950  18.083
   94ETHO    C239664  12.776  11.942  17.893
   94ETHO   H2139665  12.846  11.867  17.851
   94ETHO   H2339666  12.750  12.006  17.806
   95ETHO    O139667  12.656  11.876  17.931
   95ETHO    C139668  12.651  11.739  17.932
   95ETHO   H1139669  12.624  11.696  18.031
   95ETHO   H1339670  12.747  11.694  17.899
   95ETHO    C239671  12.550  11.676  17.839
   95ETHO   H2139672  12.452  11.724  17.858
   95ETHO   H2339673  12.529  11.573  17.875
   96ETHO    O139674  12.582  11.681  17.695
   96ETHO    C139675  12.562  11.814  17.646
   96ETHO   H1139676  12.582  11.895  17.720
   96ETHO   H1339677  12.613  11.831  17.550
   96ETHO    C239678  12.411  11.822  17.606
   96ETHO   H2139679  12.377  11.927  17.600
   96ETHO   H2339680  12.349  11.771  17.683
   97ETHO    O139681  12.382  11.760  17.479
   97ETHO    C139682  12.396  11.847  17.365
   97ETHO   H1139683  12.500  11.886  17.353
   97ETHO   H1339684  12.326  11.933  17.372
   97ETHO    C239685  12.351  11.789  17.234
   97ETHO   H2139686  12.357  11.864  17.152
   97ETHO   H2339687  12.248  11.750  17.240
   98ETHO    O139688  12.435  11.679  17.212
   98ETHO    C139689  12.429  11.626  17.081
   98ETHO   H1139690  12.319  11.615  17.069
   98ETHO   H1339691  12.472  11.696  17.006
   98ETHO    C239692  12.480  11.480  17.087
   98ETHO   H2139693  12.447  11.442  16.988
   98ETHO   H2339694  12.432  11.418  17.165
   99ETHO    O139695  12.623  11.479  17.091
   99ETHO    C139696  12.664  11.351  17.135
   99ETHO   H1139697  12.622  11.271  17.071
   99ETHO   H1339698  12.635  11.339  17.242
   99ETHO    C239699  12.814  11.335  17.104
   99ETHO   H2139700  12.852  11.246  17.160
   99ETHO   H2339701  12.878  11.418  17.142
  100ETHO    O139702  12.846  11.294  16.973
  100ETHO    C139703  12.973  11.241  16.950
  100ETHO   H1139704  13.047  11.319  16.980
  100ETHO   H1339705  12.985  11.152  17.014
  100ETHO    C239706  12.984  11.191  16.799
  100ETHO   H2139707  13.091  11.161  16.791
  100ETHO   H2339708  12.959  11.274  16.730
  101PROX    O139709  12.908  11.074  16.777
  101PROX    C139710  12.928  11.026  16.641
  101PROX   H1139711  13.035  11.022  16.612
  101PROX   H1339712  12.889  10.923  16.626
  101PROX    C239713  12.836  11.103  16.539
  101PROX   H2139714  12.860  11.212  16.548
  101PROX    C339715  12.687  11.101  16.571
  101PROX   H3139716  12.673  11.133  16.677
  101PROX   H3239717  12.628  11.159  16.498
  101PROX   H3339718  12.659  10.994  16.567
  102PROX    O139719  12.846  11.048  16.407
  102PROX    C139720  12.953  11.096  16.328
  102PROX   H1139721  13.044  11.124  16.385
  102PROX   H1339722  12.992  11.017  16.261
  102PROX    C239723  12.925  11.222  16.244
  102PROX   H2139724  12.825  11.215  16.198
  102PROX    C339725  13.012  11.243  16.108
  102PROX   H3139726  13.005  11.148  16.051
  102PROX   H3239727  12.975  11.332  16.053
  102PROX   H3339728  13.119  11.260  16.131
  103PROX    O139729  12.947  11.333  16.331
  103PROX    C139730  12.840  11.424  16.322
  103PROX   H1139731  12.820  11.451  16.216
  103PROX   H1339732  12.747  11.375  16.361
  103PROX    C239733  12.864  11.547  16.409
  103PROX   H2139734  12.780  11.618  16.396
  103PROX    C339735  13.000  11.616  16.373
  103PROX   H3139736  13.086  11.555  16.406
  103PROX   H3239737  13.002  11.631  16.263
  103PROX   H3339738  13.008  11.719  16.414
  104PROX    O139739  12.878  11.520  16.543
  104PROX    C139740  12.749  11.507  16.602
  104PROX   H1139741  12.682  11.449  16.534
  104PROX   H1339742  12.757  11.444  16.694
  104PROX    C239743  12.690  11.647  16.634
  104PROX   H2139744  12.770  11.724  16.634
  104PROX    C339745  12.611  11.637  16.762
  104PROX   H3139746  12.568  11.730  16.805
  104PROX   H3239747  12.523  11.573  16.739
  104PROX   H3339748  12.674  11.588  16.840
  105PROX    O139749  12.600  11.691  16.538
  105PROX    C139750  12.575  11.831  16.539
  105PROX   H1139751  12.565  11.874  16.641
  105PROX   H1339752  12.658  11.882  16.486
  105PROX    C239753  12.437  11.855  16.468
  105PROX   H2139754  12.441  11.814  16.365
  105PROX    C339755  12.415  12.008  16.437
  105PROX   H3139756  12.326  12.015  16.372
  105PROX   H3239757  12.394  12.068  16.528
  105PROX   H3339758  12.502  12.049  16.380
  106PROX    O139759  12.330  11.803  16.546
  106PROX    C139760  12.301  11.671  16.499
  106PROX   H1139761  12.388  11.609  16.467
  106PROX   H1339762  12.263  11.621  16.591
  106PROX    C239763  12.189  11.668  16.398
  106PROX   H2139764  12.104  11.721  16.444
  106PROX    C339765  12.140  11.526  16.369
  106PROX   H3139766  12.206  11.475  16.296
  106PROX   H3239767  12.150  11.461  16.459
  106PROX   H3339768  12.036  11.529  16.330
  107PROX    O139769  12.222  11.728  16.280
  107PROX    C139770  12.100  11.768  16.212
  107PROX   H1139771  12.037  11.682  16.179
  107PROX   H1339772  12.037  11.830  16.279
  107PROX    C239773  12.124  11.865  16.102
  107PROX   H2139774  12.025  11.880  16.056
  107PROX    C339775  12.221  11.816  15.996
  107PROX   H3139776  12.313  11.784  16.049
  107PROX   H3239777  12.175  11.730  15.944
  107PROX   H3339778  12.226  11.888  15.912
  108PROX    O139779  12.169  11.988  16.165
  108PROX    C139780  12.154  12.094  16.071
  108PROX   H1139781  12.236  12.087  15.996
  108PROX   H1339782  12.065  12.080  16.007
  108PROX    C239783  12.149  12.225  16.147
  108PROX   H2139784  12.228  12.226  16.225
  108PROX    C339785  12.011  12.238  16.222
  108PROX   H3139786  12.001  12.316  16.300
  108PROX   H3239787  11.927  12.267  16.155
  108PROX   H3339788  11.988  12.139  16.267
  109PROX    O139789  12.157  12.325  16.050
  109PROX    C139790  12.171  12.457  16.110
  109PROX   H1139791  12.074  12.503  16.137
  109PROX   H1339792  12.233  12.465  16.202
  109PROX    C239793  12.228  12.556  16.001
  109PROX   H2139794  12.332  12.529  15.971
  109PROX    C339795  12.218  12.699  16.049
  109PROX   H3139796  12.114  12.714  16.086
  109PROX   H3239797  12.281  12.724  16.137
  109PROX   H3339798  12.241  12.777  15.973
  110PROX    O139799  12.145  12.559  15.886
  110PROX    C139800  12.199  12.475  15.782
  110PROX   H1139801  12.277  12.535  15.732
  110PROX   H1339802  12.249  12.384  15.821
  110PROX    C239803  12.080  12.435  15.686
  110PROX   H2139804  12.034  12.529  15.648
  110PROX    C339805  11.974  12.361  15.765
  110PROX   H3139806  11.903  12.437  15.804
  110PROX   H3239807  11.917  12.290  15.702
  110PROX   H3339808  12.026  12.315  15.851
  111PROX    O139809  12.124  12.352  15.579
  111PROX    C139810  12.023  12.339  15.469
  111PROX   H1139811  11.922  12.364  15.508
  111PROX   H1339812  12.046  12.414  15.390
  111PROX    C239813  12.029  12.200  15.405
  111PROX   H2139814  12.026  12.125  15.487
  111PROX    C339815  12.151  12.174  15.314
  111PROX   H3139816  12.242  12.172  15.378
  111PROX   H3239817  12.152  12.074  15.265
  111PROX   H3339818  12.157  12.268  15.255
  112PROX    O139819  11.914  12.192  15.313
  112PROX    C139820  11.871  12.063  15.280
  112PROX   H1139821  11.912  12.025  15.185
  112PROX   H1339822  11.905  11.996  15.362
  112PROX    C239823  11.714  12.063  15.270
  112PROX   H2139824  11.681  12.161  15.228
  112PROX    C339825  11.659  12.043  15.409
  112PROX   H3139826  11.674  11.936  15.434
  112PROX   H3239827  11.712  12.105  15.484
  112PROX   H3339828  11.549  12.058  15.409
  113PROX    O139829  11.669  11.965  15.176
  113PROX    C139830  11.531  11.961  15.176
  113PROX   H1139831  11.497  11.907  15.267
  113PROX   H1339832  11.479  12.059  15.178
  113PROX    C239833  11.486  11.888  15.044
  113PROX   H2139834  11.546  11.924  14.958
  113PROX    C339835  11.339  11.922  15.004
  113PROX   H3139836  11.334  12.033  15.006
  113PROX   H3239837  11.316  11.882  14.904
  113PROX   H3339838  11.273  11.877  15.081
  114PROX    O139839  11.486  11.747  15.067
  114PROX    C139840  11.619  11.693  15.063
  114PROX   H1139841  11.697  11.768  15.087
  114PROX   H1339842  11.610  11.615  15.142
  114PROX    C239843  11.643  11.628  14.917
  114PROX   H2139844  11.551  11.575  14.885
  114PROX    C339845  11.741  11.512  14.924
  114PROX   H3139846  11.710  11.430  14.992
  114PROX   H3239847  11.754  11.465  14.824
  114PROX   H3339848  11.838  11.540  14.968
  115PROX    O139849  11.687  11.723  14.816
  115PROX    C139850  11.808  11.802  14.848
  115PROX   H1139851  11.804  11.859  14.943
  115PROX   H1339852  11.888  11.728  14.870
  115PROX    C239853  11.860  11.882  14.725
  115PROX   H2139854  11.784  11.960  14.706
  115PROX    C339855  11.871  11.799  14.596
  115PROX   H3139856  11.955  11.727  14.607
  115PROX   H3239857  11.778  11.740  14.584
  115PROX   H3339858  11.890  11.865  14.508
  116PROX    O139859  11.985  11.943  14.748
  116PROX    C139860  11.969  12.065  14.828
  116PROX   H1139861  11.918  12.144  14.768
  116PROX   H1339862  11.907  12.044  14.918
  116PROX    C239863  12.114  12.116  14.866
  116PROX   H2139864  12.164  12.032  14.919
  116PROX    C339865  12.123  12.232  14.972
  116PROX   H3139866  12.031  12.222  15.033
  116PROX   H3239867  12.205  12.217  15.045
  116PROX   H3339868  12.107  12.329  14.919
  117PROX    O139869  12.185  12.144  14.745
  117PROX    C139870  12.322  12.119  14.757
  117PROX   H1139871  12.377  12.206  14.716
  117PROX   H1339872  12.346  12.111  14.865
  117PROX    C239873  12.365  11.992  14.682
  117PROX   H2139874  12.311  11.989  14.585
  117PROX    C339875  12.330  11.863  14.752
  117PROX   H3139876  12.355  11.849  14.859
  117PROX   H3239877  12.220  11.856  14.744
  117PROX   H3339878  12.367  11.771  14.702
  118PROX    O139879  12.505  11.988  14.660
  118PROX    C139880  12.543  11.895  14.555
  118PROX   H1139881  12.614  11.821  14.598
  118PROX   H1339882  12.455  11.840  14.516
  118PROX    C239883  12.598  11.968  14.431
  118PROX   H2139884  12.544  12.063  14.408
  118PROX    C339885  12.573  11.885  14.301
  118PROX   H3139886  12.605  11.942  14.211
  118PROX   H3239887  12.620  11.784  14.307
  118PROX   H3339888  12.465  11.859  14.291
  119PROX    O139889  12.738  11.997  14.443
  119PROX    C139890  12.759  12.093  14.542
  119PROX   H1139891  12.809  12.187  14.510
  119PROX   H1339892  12.660  12.137  14.567
  119PROX    C239893  12.824  12.036  14.677
  119PROX   H2139894  12.774  11.938  14.694
  119PROX    C339895  12.805  12.139  14.788
  119PROX   H3139896  12.834  12.235  14.740
  119PROX   H3239897  12.702  12.145  14.827
  119PROX   H3339898  12.871  12.121  14.875
  120PROX    O139899  12.959  12.013  14.651
  120PROX    C139900  13.007  11.927  14.752
  120PROX   H1139901  13.100  11.961  14.803
  120PROX   H1339902  12.939  11.903  14.837
  120PROX    C239903  13.032  11.793  14.681
  120PROX   H2139904  13.114  11.815  14.609
  120PROX    C339905  12.914  11.736  14.597
  120PROX   H3139906  12.844  11.701  14.676
  120PROX   H3239907  12.865  11.812  14.532
  120PROX   H3339908  12.958  11.652  14.540
  121PROX    O139909  13.080  11.704  14.771
  121PROX    C139910  13.143  11.584  14.711
  121PROX   H1139911  13.147  11.590  14.600
  121PROX   H1339912  13.246  11.579  14.754
  121PROX    C239913  13.092  11.442  14.761
  121PROX   H2139914  13.104  11.461  14.870
  121PROX    C339915  13.190  11.332  14.715
  121PROX   H3139916  13.292  11.357  14.751
  121PROX   H3239917  13.166  11.230  14.749
  121PROX   H3339918  13.204  11.323  14.605
  122PROX    O139919  12.953  11.430  14.733
  122PROX    C139920  12.899  11.323  14.811
  122PROX   H1139921  12.929  11.224  14.772
  122PROX   H1339922  12.928  11.328  14.918
  122PROX    C239923  12.745  11.322  14.821
  122PROX   H2139924  12.725  11.420  14.869
  122PROX    C339925  12.700  11.222  14.929
  122PROX   H3139926  12.606  11.264  14.969
  122PROX   H3239927  12.685  11.124  14.880
  122PROX   H3339928  12.772  11.219  15.014
  123PROX    O139929  12.678  11.312  14.690
  123PROX    C139930  12.536  11.341  14.700
  123PROX   H1139931  12.474  11.250  14.711
  123PROX   H1339932  12.519  11.407  14.788
  123PROX    C239933  12.502  11.433  14.571
  123PROX   H2139934  12.530  11.370  14.483
  123PROX    C339935  12.593  11.552  14.564
  123PROX   H3139936  12.701  11.531  14.576
  123PROX   H3239937  12.585  11.594  14.462
  123PROX   H3339938  12.574  11.628  14.643
  124PROX    O139939  12.359  11.457  14.581
  124PROX    C139940  12.299  11.487  14.456
  124PROX   H1139941  12.367  11.560  14.407
  124PROX   H1339942  12.298  11.397  14.391
  124PROX    C239943  12.162  11.555  14.483
  124PROX   H2139944  12.177  11.643  14.549
  124PROX    C339945  12.052  11.461  14.546
  124PROX   H3139946  11.955  11.514  14.549
  124PROX   H3239947  12.050  11.366  14.489
  124PROX   H3339948  12.089  11.433  14.647
  125PROX    O139949  12.110  11.607  14.357
  125PROX    C139950  12.148  11.741  14.334
  125PROX   H1139951  12.096  11.819  14.393
  125PROX   H1339952  12.256  11.758  14.355
  125PROX    C239953  12.135  11.770  14.185
  125PROX   H2139954  12.031  11.759  14.149
  125PROX    C339955  12.225  11.677  14.101
  125PROX   H3139956  12.333  11.700  14.117
  125PROX   H3239957  12.206  11.575  14.140
  125PROX   H3339958  12.197  11.667  13.994
  126PROX    O139959  12.165  11.907  14.166
  126PROX    C139960  12.167  11.948  14.029
  126PROX   H1139961  12.260  11.924  13.973
  126PROX   H1339962  12.079  11.910  13.972
  126PROX    C239963  12.166  12.103  14.027
  126PROX   H2139964  12.102  12.147  14.107
  126PROX    C339965  12.128  12.152  13.884
  126PROX   H3139966  12.124  12.263  13.884
  126PROX   H3239967  12.202  12.115  13.810
  126PROX   H3339968  12.033  12.112  13.844
  127PROX    O139969  12.300  12.155  14.034
  127PROX    C139970  12.303  12.276  14.099
  127PROX   H1139971  12.369  12.349  14.047
  127PROX   H1339972  12.205  12.327  14.107
  127PROX    C239973  12.355  12.258  14.245
  127PROX   H2139974  12.437  12.183  14.238
  127PROX    C339975  12.248  12.188  14.329
  127PROX   H3139976  12.148  12.236  14.323
  127PROX   H3239977  12.235  12.083  14.295
  127PROX   H3339978  12.282  12.193  14.435
  128PROX    O139979  12.392  12.376  14.304
  128PROX    C139980  12.492  12.364  14.412
  128PROX   H1139981  12.448  12.307  14.496
  128PROX   H1339982  12.578  12.303  14.378
  128PROX    C239983  12.541  12.502  14.452
  128PROX   H2139984  12.464  12.560  14.508
  128PROX    C339985  12.599  12.582  14.334
  128PROX   H3139986  12.514  12.602  14.266
  128PROX   H3239987  12.639  12.685  14.351
  128PROX   H3339988  12.682  12.530  14.281
  129PROX    O139989  12.647  12.495  14.543
  129PROX    C139990  12.614  12.457  14.679
  129PROX   H1139991  12.575  12.353  14.684
  129PROX   H1339992  12.711  12.453  14.734
  129PROX    C239993  12.517  12.556  14.750
  129PROX   H2139994  12.413  12.552  14.712
  129PROX    C339995  12.559  12.702  14.725
  129PROX   H3139996  12.580  12.724  14.619
  129PROX   H3239997  12.488  12.780  14.760
  129PROX   H3339998  12.646  12.730  14.788
  130PROX    O139999  12.513  12.535  14.888
  130PROX    C140000  12.443  12.412  14.920
  130PROX   H1140001  12.334  12.416  14.899
  130PROX   H1340002  12.493  12.326  14.870
  130PROX    C240003  12.457  12.380  15.077
  130PROX   H2140004  12.532  12.449  15.123
  130PROX    C340005  12.493  12.235  15.100
  130PROX   H3140006  12.424  12.167  15.046
  130PROX   H3240007  12.594  12.224  15.055
  130PROX   H3340008  12.506  12.206  15.207
  131PROX    O140009  12.333  12.399  15.145
  131PROX    C140010  12.297  12.536  15.166
  131PROX   H1140011  12.327  12.589  15.073
  131PROX   H1340012  12.189  12.537  15.189
  131PROX    C240013  12.370  12.603  15.282
  131PROX   H2140014  12.479  12.580  15.287
  131PROX    C340015  12.299  12.549  15.409
  131PROX   H3140016  12.368  12.559  15.495
  131PROX   H3240017  12.198  12.595  15.418
  131PROX   H3340018  12.284  12.439  15.407
  132PROX    O140019  12.347  12.750  15.289
  132PROX    C140020  12.422  12.810  15.180
  132PROX   H1140021  12.521  12.760  15.170
  132PROX   H1340022  12.373  12.809  15.080
  132PROX    C240023  12.444  12.960  15.197
  132PROX   H2140024  12.357  13.012  15.243
  132PROX    C340025  12.478  13.026  15.070
  132PROX   H3140026  12.390  13.023  15.002
  132PROX   H3240027  12.490  13.131  15.105
  132PROX   H3340028  12.572  12.985  15.026
  133PROX    O140029  12.552  12.982  15.293
  133PROX    C140030  12.523  13.094  15.375
  133PROX   H1140031  12.615  13.152  15.398
  133PROX   H1340032  12.469  13.168  15.312
  133PROX    C240033  12.441  13.066  15.503
  133PROX   H2140034  12.375  12.977  15.490
  133PROX    C340035  12.339  13.175  15.551
  133PROX   H3140036  12.251  13.175  15.484
  133PROX   H3240037  12.309  13.139  15.652
  133PROX   H3340038  12.387  13.275  15.560
  134PROX    O140039  12.531  13.042  15.614
  134PROX    C140040  12.603  12.914  15.597
  134PROX   H1140041  12.646  12.906  15.495
  134PROX   H1340042  12.677  12.904  15.679
  134PROX    C240043  12.514  12.786  15.613
  134PROX   H2140044  12.463  12.764  15.517
  134PROX    C340045  12.411  12.798  15.733
  134PROX   H3140046  12.455  12.860  15.814
  134PROX   H3240047  12.317  12.836  15.687
  134PROX   H3340048  12.396  12.696  15.774
  135PROX    O140049  12.590  12.673  15.641
  135PROX    C140050  12.672  12.621  15.533
  135PROX   H1140051  12.618  12.537  15.484
  135PROX   H1340052  12.689  12.700  15.456
  135PROX    C240053  12.804  12.562  15.596
  135PROX   H2140054  12.793  12.473  15.662
  135PROX    C340055  12.857  12.658  15.699
  135PROX   H3140056  12.795  12.656  15.792
  135PROX   H3240057  12.957  12.626  15.735
  135PROX   H3340058  12.864  12.764  15.664
  136PROX    O140059  12.893  12.532  15.492
  136PROX    C140060  13.007  12.441  15.530
  136PROX   H1140061  13.094  12.505  15.554
  136PROX   H1340062  12.982  12.383  15.622
  136PROX    C240063  13.031  12.336  15.415
  136PROX   H2140064  12.932  12.318  15.369
  136PROX    C340065  13.077  12.195  15.462
  136PROX   H3140066  13.168  12.202  15.525
  136PROX   H3240067  12.998  12.141  15.518
  136PROX   H3340068  13.101  12.143  15.367
  137PROX    O140069  13.127  12.375  15.316
  137PROX    C140070  13.071  12.476  15.226
  137PROX   H1140071  13.020  12.556  15.284
  137PROX   H1340072  13.149  12.540  15.179
  137PROX    C240073  12.974  12.428  15.118
  137PROX   H2140074  12.891  12.374  15.168
  137PROX    C340075  13.040  12.330  15.021
  137PROX   H3140076  13.062  12.232  15.069
  137PROX   H3240077  12.966  12.305  14.942
  137PROX   H3340078  13.136  12.365  14.976
  138PROX    O140079  12.912  12.530  15.041
  138PROX    C140080  12.801  12.584  15.109
  138PROX   H1140081  12.714  12.555  15.047
  138PROX   H1340082  12.789  12.555  15.215
  138PROX    C240083  12.819  12.734  15.116
  138PROX   H2140084  12.720  12.786  15.112
  138PROX    C340085  12.907  12.781  14.999
  138PROX   H3140086  12.945  12.883  15.023
  138PROX   H3240087  12.996  12.716  14.984
  138PROX   H3340088  12.854  12.802  14.904
  139PROX    O140089  12.879  12.764  15.239
  139PROX    C140090  12.877  12.904  15.275
  139PROX   H1140091  12.935  12.972  15.209
  139PROX   H1340092  12.772  12.937  15.271
  139PROX    C240093  12.932  12.937  15.420
  139PROX   H2140094  12.878  12.862  15.482
  139PROX    C340095  12.900  13.080  15.467
  139PROX   H3140096  12.924  13.164  15.399
  139PROX   H3240097  12.790  13.089  15.484
  139PROX   H3340098  12.959  13.091  15.560
  140PROX    O140099  13.071  12.928  15.431
  140PROX    C140100  13.122  12.794  15.429
  140PROX   H1140101  13.057  12.728  15.489
  140PROX   H1340102  13.119  12.753  15.325
  140PROX    C240103  13.265  12.774  15.496
  140PROX   H2140104  13.328  12.863  15.476
  140PROX    C340105  13.334  12.656  15.435
  140PROX   H3140106  13.340  12.665  15.325
  140PROX   H3240107  13.441  12.648  15.466
  140PROX   H3340108  13.283  12.560  15.458
  141PROX    O140109  13.250  12.749  15.634
  141PROX    C140110  13.190  12.853  15.709
  141PROX   H1140111  13.219  12.952  15.668
  141PROX   H1340112  13.080  12.849  15.691
  141PROX    C240113  13.213  12.838  15.860
  141PROX   H2140114  13.214  12.731  15.888
  141PROX    C340115  13.105  12.901  15.944
  141PROX   H3140116  13.136  12.894  16.050
  141PROX   H3240117  13.091  13.010  15.925
  141PROX   H3340118  13.011  12.845  15.921
  142PROX    O140119  13.335  12.905  15.891
  142PROX    C140120  13.443  12.832  15.828
  142PROX   H1140121  13.424  12.723  15.830
  142PROX   H1340122  13.439  12.860  15.720
  142PROX    C240123  13.576  12.862  15.887
  142PROX   H2140124  13.600  12.795  15.973
  142PROX    C340125  13.583  13.014  15.928
  142PROX   H3140126  13.672  13.044  15.988
  142PROX   H3240127  13.597  13.066  15.831
  142PROX   H3340128  13.488  13.053  15.969
  143PROX    O140129  13.677  12.838  15.787
  143PROX    C140130  13.671  12.699  15.741
  143PROX   H1140131  13.665  12.632  15.829
  143PROX   H1340132  13.580  12.695  15.677
  143PROX    C240133  13.789  12.665  15.651
  143PROX   H2140134  13.886  12.685  15.702
  143PROX    C340135  13.786  12.756  15.528
  143PROX   H3140136  13.870  12.728  15.461
  143PROX   H3240137  13.685  12.748  15.481
  143PROX   H3340138  13.816  12.855  15.569
  144PROX    O140139  13.783  12.527  15.603
  144PROX    C140140  13.901  12.491  15.522
  144PROX   H1140141  13.879  12.524  15.419
  144PROX   H1340142  13.992  12.525  15.575
  144PROX    C240143  13.912  12.336  15.530
  144PROX   H2140144  13.873  12.311  15.631
  144PROX    C340145  14.061  12.298  15.517
  144PROX   H3140146  14.108  12.350  15.430
  144PROX   H3240147  14.122  12.325  15.606
  144PROX   H3340148  14.076  12.189  15.502
  145PROX    O140149  13.829  12.285  15.429
  145PROX    C140150  13.828  12.145  15.417
  145PROX   H1140151  13.784  12.112  15.321
  145PROX   H1340152  13.930  12.106  15.401
  145PROX    C240153  13.753  12.076  15.542
  145PROX   H2140154  13.701  12.155  15.600
  145PROX    C340155  13.847  11.989  15.627
  145PROX   H3140156  13.922  11.937  15.563
  145PROX   H3240157  13.913  12.051  15.692
  145PROX   H3340158  13.793  11.913  15.688
  146PROX    O140159  13.646  11.995  15.491
  146PROX    C140160  13.556  12.073  15.408
  146PROX   H1140161  13.515  12.161  15.462
  146PROX   H1340162  13.595  12.097  15.307
  146PROX    C240163  13.428  11.995  15.372
  146PROX   H2140164  13.454  11.887  15.358
  146PROX    C340165  13.362  12.049  15.243
  146PROX   H3140166  13.430  12.027  15.158
  146PROX   H3240167  13.265  11.997  15.230
  146PROX   H3340168  13.346  12.159  15.249
  147PROX    O140169  13.331  12.007  15.474
  147PROX    C140170  13.253  11.889  15.485
  147PROX   H1140171  13.148  11.924  15.494
  147PROX   H1340172  13.249  11.825  15.394
  147PROX    C240173  13.279  11.808  15.609
  147PROX   H2140174  13.291  11.882  15.690
  147PROX    C340175  13.396  11.718  15.594
  147PROX   H3140176  13.368  11.643  15.517
  147PROX   H3240177  13.489  11.773  15.570
  147PROX   H3340178  13.416  11.663  15.688
  148PROX    O140179  13.158  11.737  15.642
  148PROX    C140180  13.165  11.674  15.773
  148PROX   H1140181  13.207  11.573  15.755
  148PROX   H1340182  13.220  11.728  15.852
  148PROX    C240183  13.022  11.642  15.819
  148PROX   H2140184  12.952  11.720  15.780
  148PROX    C340185  13.007  11.627  15.971
  148PROX   H3140186  12.915  11.572  16.001
  148PROX   H3240187  13.090  11.581  16.027
  148PROX   H3340188  12.985  11.725  16.020
  149PROX    O140189  12.982  11.514  15.770
  149PROX    C140190  12.841  11.501  15.748
  149PROX   H1140191  12.815  11.394  15.739
  149PROX   H1340192  12.786  11.528  15.841
  149PROX    C240193  12.806  11.562  15.618
  149PROX   H2140194  12.899  11.588  15.563
  149PROX    C340195  12.712  11.684  15.638
  149PROX   H3140196  12.616  11.639  15.671
  149PROX   H3240197  12.747  11.751  15.719
  149PROX   H3340198  12.699  11.750  15.550
  150PROX    O140199  12.730  11.472  15.539
  150PROX    C140200  12.742  11.503  15.400
  150PROX   H1140201  12.751  11.612  15.377
  150PROX   H1340202  12.833  11.445  15.375
  150PROX    C240203  12.621  11.446  15.324
  150PROX   H2140204  12.526  11.485  15.365
  150PROX    C340205  12.619  11.293  15.332
  150PROX   H3140206  12.533  11.261  15.270
  150PROX   H3240207  12.717  11.254  15.297
  150PROX   H3340208  12.607  11.278  15.442
  151PROX    O140209  12.622  11.476  15.186
  151PROX    C140210  12.606  11.610  15.153
  151PROX   H1140211  12.548  11.658  15.235
  151PROX   H1340212  12.709  11.651  15.158
  151PROX    C240213  12.546  11.639  15.015
  151PROX   H2140214  12.590  11.566  14.943
  151PROX    C340215  12.584  11.783  14.961
  151PROX   H3140216  12.583  11.787  14.850
  151PROX   H3240217  12.508  11.849  15.008
  151PROX   H3340218  12.680  11.832  14.985
  152PROX    O140219  12.401  11.626  15.015
  152PROX    C140220  12.347  11.493  15.031
  152PROX   H1140221  12.382  11.432  14.945
  152PROX   H1340222  12.396  11.458  15.124
  152PROX    C240223  12.194  11.487  15.021
  152PROX   H2140224  12.168  11.383  14.994
  152PROX    C340225  12.135  11.568  14.901
  152PROX   H3140226  12.030  11.536  14.890
  152PROX   H3240227  12.139  11.679  14.910
  152PROX   H3340228  12.194  11.547  14.809
  153PROX    O140229  12.135  11.524  15.144
  153PROX    C140230  12.177  11.655  15.196
  153PROX   H1140231  12.285  11.656  15.223
  153PROX   H1340232  12.164  11.730  15.115
  153PROX    C240233  12.086  11.697  15.315
  153PROX   H2140234  12.087  11.616  15.391
  153PROX    C340235  11.944  11.732  15.274
  153PROX   H3140236  11.881  11.779  15.353
  153PROX   H3240237  11.950  11.809  15.194
  153PROX   H3340238  11.892  11.644  15.232
  154PROX    O140239  12.146  11.825  15.355
  154PROX    C140240  12.131  11.842  15.495
  154PROX   H1140241  12.140  11.952  15.511
  154PROX   H1340242  12.037  11.800  15.537
  154PROX    C240243  12.249  11.786  15.579
  154PROX   H2140244  12.236  11.816  15.685
  154PROX    C340245  12.386  11.831  15.531
  154PROX   H3140246  12.403  11.811  15.423
  154PROX   H3240247  12.404  11.941  15.535
  154PROX   H3340248  12.464  11.785  15.594
  155PROX    O140249  12.241  11.641  15.587
  155PROX    C140250  12.134  11.591  15.664
  155PROX   H1140251  12.105  11.664  15.742
  155PROX   H1340252  12.044  11.575  15.600
  155PROX    C240253  12.163  11.449  15.717
  155PROX   H2140254  12.172  11.373  15.636
  155PROX    C340255  12.072  11.403  15.828
  155PROX   H3140256  12.097  11.301  15.863
  155PROX   H3240257  12.077  11.472  15.915
  155PROX   H3340258  11.970  11.401  15.783
  156PROX    O140259  12.289  11.455  15.775
  156PROX    C140260  12.361  11.329  15.773
  156PROX   H1140261  12.301  11.255  15.831
  156PROX   H1340262  12.384  11.305  15.667
  156PROX    C240263  12.499  11.355  15.829
  156PROX   H2140264  12.555  11.429  15.768
  156PROX    C340265  12.584  11.225  15.838
  156PROX   H3140266  12.527  11.138  15.875
  156PROX   H3240267  12.608  11.196  15.733
  156PROX   H3340268  12.672  11.235  15.905
  157PROX    O140269  12.490  11.393  15.965
  157PROX    C140270  12.455  11.529  15.990
  157PROX   H1140271  12.478  11.587  15.898
  157PROX   H1340272  12.352  11.546  16.027
  157PROX    C240273  12.543  11.578  16.102
  157PROX   H2140274  12.647  11.549  16.078
  157PROX    C340275  12.498  11.520  16.240
  157PROX   H3140276  12.394  11.551  16.262
  157PROX   H3240277  12.504  11.409  16.241
  157PROX   H3340278  12.580  11.557  16.306
  158PROX    O140279  12.544  11.724  16.100
  158PROX    C140280  12.620  11.788  15.996
  158PROX   H1140281  12.717  11.734  15.997
  158PROX   H1340282  12.565  11.772  15.901
  158PROX    C240283  12.660  11.933  16.026
  158PROX   H2140284  12.711  11.931  16.125
  158PROX    C340285  12.534  12.025  16.036
  158PROX   H3140286  12.466  12.020  15.948
  158PROX   H3240287  12.474  12.005  16.127
  158PROX   H3340288  12.576  12.127  16.047
  159PROX    O140289  12.749  11.970  15.923
  159PROX    C140290  12.829  12.085  15.962
  159PROX   H1140291  12.771  12.179  15.977
  159PROX   H1340292  12.893  12.056  16.048
  159PROX    C240293  12.924  12.134  15.843
  159PROX   H2140294  12.857  12.200  15.784
  159PROX    C340295  12.984  12.015  15.764
  159PROX   H3140296  12.967  11.927  15.830
  159PROX   H3240297  12.929  11.992  15.670
  159PROX   H3340298  13.091  12.038  15.749
  160PROX    O140299  13.029  12.213  15.888
  160PROX    C140300  12.986  12.340  15.933
  160PROX   H1140301  12.932  12.391  15.850
  160PROX   H1340302  12.915  12.324  16.017
  160PROX    C240303  13.107  12.427  15.979
  160PROX   H2140304  13.170  12.364  16.045
  160PROX    C340305  13.051  12.553  16.054
  160PROX   H3140306  13.018  12.631  15.982
  160PROX   H3240307  12.979  12.539  16.137
  160PROX   H3340308  13.141  12.596  16.103
  161PROX    O140309  13.189  12.480  15.875
  161PROX    C140310  13.263  12.382  15.796
  161PROX   H1140311  13.203  12.296  15.758
  161PROX   H1340312  13.300  12.440  15.709
  161PROX    C240313  13.384  12.322  15.879
  161PROX   H2140314  13.339  12.266  15.964
  161PROX    C340315  13.474  12.439  15.925
  161PROX   H3140316  13.568  12.390  15.957
  161PROX   H3240317  13.503  12.517  15.852
  161PROX   H3340318  13.441  12.497  16.014
  162PROX    O140319  13.457  12.237  15.793
  162PROX    C140320  13.411  12.104  15.786
  162PROX   H1140321  13.300  12.103  15.783
  162PROX   H1340322  13.467  12.063  15.699
  162PROX    C240323  13.447  12.023  15.911
  162PROX   H2140324  13.450  12.090  16.000
  162PROX    C340325  13.588  11.958  15.902
  162PROX   H3140326  13.662  12.040  15.886
  162PROX   H3240327  13.619  11.902  15.993
  162PROX   H3340328  13.602  11.886  15.819
  163PROX    O140329  13.351  11.917  15.920
  163PROX    C140330  13.259  11.946  16.023
  163PROX   H1140331  13.225  12.052  16.015
  163PROX   H1340332  13.170  11.880  16.013
  163PROX    C240333  13.315  11.926  16.167
  163PROX   H2140334  13.414  11.970  16.189
  163PROX    C340335  13.325  11.771  16.193
  163PROX   H3140336  13.374  11.755  16.291
  163PROX   H3240337  13.224  11.725  16.187
  163PROX   H3340338  13.388  11.726  16.113
  164PROX    O140339  13.230  11.976  16.273
  164PROX    C140340  13.244  12.117  16.285
  164PROX   H1140341  13.351  12.140  16.306
  164PROX   H1340342  13.222  12.170  16.191
  164PROX    C240343  13.144  12.173  16.385
  164PROX   H2140344  13.162  12.129  16.486
  164PROX    C340345  13.001  12.131  16.349
  164PROX   H3140346  12.987  12.021  16.346
  164PROX   H3240347  12.935  12.186  16.420
  164PROX   H3340348  12.965  12.169  16.251
  165PROX    O140349  13.147  12.316  16.393
  165PROX    C140350  13.220  12.352  16.508
  165PROX   H1140351  13.191  12.303  16.603
  165PROX   H1340352  13.324  12.317  16.486
  165PROX    C240353  13.230  12.507  16.522
  165PROX   H2140354  13.124  12.542  16.527
  165PROX    C340355  13.287  12.567  16.387
  165PROX   H3140356  13.288  12.678  16.383
  165PROX   H3240357  13.391  12.534  16.372
  165PROX   H3340358  13.219  12.537  16.305
  166ETHO    O140359  13.304  12.544  16.638
  166ETHO    C140360  13.260  12.670  16.688
  166ETHO   H1140361  13.155  12.653  16.718
  166ETHO   H1340362  13.270  12.748  16.609
  166ETHO    C240363  13.341  12.695  16.818
  166ETHO   H2140364  13.345  12.599  16.872
  166ETHO   H2340365  13.295  12.777  16.878
  167ETHO    O140366  13.476  12.718  16.791
  167ETHO    C140367  13.570  12.744  16.890
  167ETHO   H1140368  13.589  12.646  16.938
  167ETHO   H1340369  13.659  12.793  16.845
  167ETHO    C240370  13.506  12.837  17.000
  167ETHO   H2140371  13.450  12.923  16.959
  167ETHO   H2340372  13.596  12.868  17.058
  168ETHO    O140373  13.431  12.762  17.102
  168ETHO    C140374  13.364  12.849  17.193
  168ETHO   H1140375  13.263  12.865  17.151
  168ETHO   H1340376  13.430  12.938  17.208
  168ETHO    C240377  13.327  12.770  17.326
  168ETHO   H2140378  13.289  12.669  17.300
  168ETHO   H2340379  13.232  12.813  17.366
  169ETHO    O140380  13.432  12.773  17.427
  169ETHO    C140381  13.394  12.721  17.553
  169ETHO   H1140382  13.290  12.750  17.581
  169ETHO   H1340383  13.400  12.610  17.547
  169ETHO    C240384  13.500  12.765  17.652
  169ETHO   H2140385  13.461  12.762  17.757
  169ETHO   H2340386  13.529  12.870  17.632
  170ETHO    O140387  13.612  12.681  17.628
  170ETHO    C140388  13.720  12.697  17.721
  170ETHO   H1140389  13.690  12.698  17.828
  170ETHO   H1340390  13.761  12.799  17.703
  170ETHO    C240391  13.814  12.580  17.700
  170ETHO   H2140392  13.820  12.556  17.592
  170ETHO   H2340393  13.794  12.490  17.762
  171ETHO    O140394  13.948  12.615  17.733
  171ETHO    C140395  13.965  12.644  17.871
  171ETHO   H1140396  13.949  12.752  17.888
  171ETHO   H1340397  13.916  12.576  17.944
  171ETHO    C240398  14.110  12.630  17.899
  171ETHO   H2140399  14.129  12.664  18.003
  171ETHO   H2340400  14.170  12.702  17.839
  172ETHO    O140401  14.172  12.498  17.876
  172ETHO    C140402  14.129  12.399  17.968
  172ETHO   H1140403  14.018  12.406  17.973
  172ETHO   H1340404  14.177  12.408  18.068
  172ETHO    C240405  14.170  12.264  17.915
  172ETHO   H2140406  14.280  12.249  17.918
  172ETHO   H2340407  14.144  12.254  17.807
  173ETHO    O140408  14.108  12.154  17.983
  173ETHO    C140409  13.977  12.123  17.932
  173ETHO   H1140410  13.908  12.208  17.947
  173ETHO   H1340411  14.005  12.103  17.826
  173ETHO    C240412  13.906  11.996  17.980
  173ETHO   H2140413  13.836  11.965  17.900
  173ETHO   H2340414  13.979  11.915  17.999
  174ETHO    O140415  13.827  12.040  18.099
  174ETHO    C140416  13.760  11.926  18.158
  174ETHO   H1140417  13.685  11.887  18.086
  174ETHO   H1340418  13.835  11.850  18.186
  174ETHO    C240419  13.690  11.962  18.286
  174ETHO   H2140420  13.647  11.865  18.319
  174ETHO   H2340421  13.608  12.036  18.268
  175ETHO    O140422  13.774  11.997  18.406
  175ETHO    C140423  13.697  12.027  18.520
  175ETHO   H1140424  13.630  12.109  18.489
  175ETHO   H1340425  13.641  11.934  18.545
  175ETHO    C240426  13.791  12.064  18.643
  175ETHO   H2140427  13.857  11.979  18.671
  175ETHO   H2340428  13.719  12.095  18.723
  176ETHO    O140429  13.870  12.179  18.618
  176ETHO    C140430  13.998  12.173  18.675
  176ETHO   H1140431  14.000  12.154  18.784
  176ETHO   H1340432  14.036  12.081  18.627
  176ETHO    C240433  14.090  12.293  18.635
  176ETHO   H2140434  14.097  12.291  18.525
  176ETHO   H2340435  14.191  12.283  18.681
  177ETHO    O140436  14.031  12.414  18.680
  177ETHO    C140437  14.067  12.525  18.605
  177ETHO   H1140438  14.021  12.505  18.506
  177ETHO   H1340439  14.175  12.544  18.620
  177ETHO    C240440  13.993  12.645  18.670
  177ETHO   H2140441  14.029  12.663  18.773
  177ETHO   H2340442  13.884  12.631  18.683
  178ETHO    O140443  14.024  12.764  18.592
  178ETHO    C140444  13.926  12.793  18.497
  178ETHO   H1140445  13.897  12.698  18.449
  178ETHO   H1340446  13.833  12.838  18.538
  178ETHO    C240447  13.984  12.891  18.397
  178ETHO   H2140448  14.026  12.981  18.447
  178ETHO   H2340449  13.903  12.926  18.329
  179ETHO    O140450  14.082  12.832  18.321
  179ETHO    C140451  14.175  12.935  18.272
  179ETHO   H1140452  14.236  12.949  18.363
  179ETHO   H1340453  14.122  13.029  18.244
  179ETHO    C240454  14.257  12.888  18.154
  179ETHO   H2140455  14.328  12.973  18.144
  179ETHO   H2340456  14.199  12.869  18.061
  180ETHO    O140457  14.339  12.777  18.198
  180ETHO    C140458  14.434  12.740  18.093
  180ETHO   H1140459  14.467  12.639  18.123
  180ETHO   H1340460  14.373  12.733  18.001
  180ETHO    C240461  14.559  12.834  18.086
  180ETHO   H2140462  14.593  12.848  18.191
  180ETHO   H2340463  14.533  12.933  18.043
  181ETHO    O140464  14.661  12.764  18.012
  181ETHO    C140465  14.768  12.856  17.990
  181ETHO   H1140466  14.739  12.958  17.957
  181ETHO   H1340467  14.826  12.811  17.906
  181ETHO    C240468  14.854  12.872  18.124
  181ETHO   H2140469  14.784  12.923  18.194
  181ETHO   H2340470  14.942  12.939  18.113
  182ETHO    O140471  14.904  12.749  18.176
  182ETHO    C140472  14.999  12.776  18.271
  182ETHO   H1140473  15.093  12.821  18.231
  182ETHO   H1340474  14.959  12.856  18.337
  182ETHO    C240475  15.035  12.649  18.343
  182ETHO   H2140476  15.110  12.669  18.423
  182ETHO   H2340477  15.065  12.572  18.269
  183ETHO    O140478  14.920  12.600  18.394
  183ETHO    C140479  14.950  12.474  18.451
  183ETHO   H1140480  15.023  12.490  18.533
  183ETHO   H1340481  14.993  12.403  18.377
  183ETHO    C240482  14.828  12.393  18.512
  183ETHO   H2140483  14.771  12.350  18.427
  183ETHO   H2340484  14.768  12.464  18.572
  184ETHO    O140485  14.861  12.281  18.604
  184ETHO    C140486  14.745  12.206  18.642
  184ETHO   H1140487  14.670  12.283  18.673
  184ETHO   H1340488  14.695  12.149  18.561
  184ETHO    C240489  14.797  12.113  18.748
  184ETHO   H2140490  14.711  12.058  18.791
  184ETHO   H2340491  14.850  12.165  18.831
  185ETHO    O140492  14.880  12.005  18.702
  185ETHO    C140493  14.921  11.915  18.803
  185ETHO   H1140494  15.027  11.926  18.835
  185ETHO   H1340495  14.844  11.919  18.883
  185ETHO    C240496  14.911  11.780  18.735
  185ETHO   H2140497  14.807  11.758  18.703
  185ETHO   H2340498  14.929  11.704  18.814
  186ETHO    O140499  15.013  11.760  18.631
  186ETHO    C140500  14.983  11.646  18.558
  186ETHO   H1140501  14.880  11.658  18.517
  186ETHO   H1340502  15.049  11.663  18.471
  186ETHO    C240503  15.013  11.521  18.631
  186ETHO   H2140504  15.105  11.539  18.691
  186ETHO   H2340505  15.028  11.429  18.571
  187ETHO    O140506  14.899  11.470  18.706
  187ETHO    C140507  14.926  11.351  18.773
  187ETHO   H1140508  14.932  11.273  18.694
  187ETHO   H1340509  15.027  11.364  18.818
  187ETHO    C240510  14.821  11.325  18.878
  187ETHO   H2140511  14.815  11.415  18.942
  187ETHO   H2340512  14.857  11.235  18.932
  188ETHO    O140513  14.698  11.308  18.810
  188ETHO    C140514  14.687  11.183  18.740
  188ETHO   H1140515  14.699  11.092  18.803
  188ETHO   H1340516  14.761  11.176  18.657
  188ETHO    C240517  14.542  11.171  18.686
  188ETHO   H2140518  14.466  11.206  18.759
  188ETHO   H2340519  14.520  11.064  18.670
  189ETHO    O140520  14.537  11.240  18.552
  189ETHO    C140521  14.405  11.253  18.498
  189ETHO   H1140522  14.331  11.180  18.537
  189ETHO   H1340523  14.376  11.359  18.516
  189ETHO    C240524  14.414  11.235  18.342
  189ETHO   H2140525  14.483  11.153  18.314
  189ETHO   H2340526  14.449  11.332  18.299
  190ETHO    O140527  14.287  11.203  18.279
  190ETHO    C140528  14.296  11.178  18.133
  190ETHO   H1140529  14.381  11.112  18.103
  190ETHO   H1340530  14.297  11.275  18.079
  190ETHO    C240531  14.169  11.103  18.086
  190ETHO   H2140532  14.139  11.108  17.979
  190ETHO   H2340533  14.085  11.150  18.142
  191ETHO    O140534  14.168  10.968  18.126
  191ETHO    C140535  14.078  10.891  18.045
  191ETHO   H1140536  14.021  10.822  18.111
  191ETHO   H1340537  14.002  10.958  17.999
  191ETHO    C240538  14.143  10.800  17.938
  191ETHO   H2140539  14.055  10.768  17.878
  191ETHO   H2340540  14.182  10.707  17.985
  192ETHO    O140541  14.241  10.873  17.865
  192ETHO    C140542  14.286  10.796  17.753
  192ETHO   H1140543  14.206  10.734  17.707
  192ETHO   H1340544  14.364  10.725  17.789
  192ETHO    C240545  14.344  10.873  17.636
  192ETHO   H2140546  14.267  10.935  17.585
  192ETHO   H2340547  14.376  10.799  17.559
  193ETHO    O140548  14.457  10.958  17.679
  193ETHO    C140549  14.492  11.040  17.574
  193ETHO   H1140550  14.513  10.978  17.484
  193ETHO   H1340551  14.412  11.112  17.545
  193ETHO    C240552  14.614  11.126  17.605
  193ETHO   H2140553  14.570  11.187  17.686
  193ETHO   H2340554  14.632  11.188  17.514
  194ETHO    O140555  14.732  11.052  17.650
  194ETHO    C140556  14.803  10.990  17.548
  194ETHO   H1140557  14.826  11.053  17.459
  194ETHO   H1340558  14.745  10.900  17.518
  194ETHO    C240559  14.936  10.939  17.600
  194ETHO   H2140560  14.974  11.027  17.656
  194ETHO   H2340561  15.005  10.902  17.522
  195ETHO    O140562  14.916  10.836  17.698
  195ETHO    C140563  15.036  10.804  17.771
  195ETHO   H1140564  15.105  10.745  17.707
  195ETHO   H1340565  15.082  10.899  17.804
  195ETHO    C240566  14.991  10.712  17.887
  195ETHO   H2140567  15.065  10.629  17.893
  195ETHO   H2340568  14.888  10.673  17.873
  196ETHO    O140569  14.984  10.784  18.010
  196ETHO    C140570  14.926  10.708  18.113
  196ETHO   H1140571  14.819  10.738  18.110
  196ETHO   H1340572  14.927  10.598  18.096
  196ETHO    C240573  14.977  10.759  18.242
  196ETHO   H2140574  15.079  10.718  18.251
  196ETHO   H2340575  14.929  10.717  18.333
  197ETHO    O140576  14.966  10.900  18.253
  197ETHO    C140577  15.027  10.953  18.371
  197ETHO   H1140578  15.021  10.878  18.452
  197ETHO   H1340579  15.135  10.969  18.350
  197ETHO    C240580  14.957  11.094  18.409
  197ETHO   H2140581  14.992  11.138  18.505
  197ETHO   H2340582  14.852  11.064  18.428
  198ETHO    O140583  14.971  11.184  18.305
  198ETHO    C140584  14.878  11.296  18.326
  198ETHO   H1140585  14.772  11.264  18.318
  198ETHO   H1340586  14.905  11.358  18.414
  198ETHO    C240587  14.888  11.383  18.197
  198ETHO   H2140588  14.814  11.466  18.194
  198ETHO   H2340589  14.882  11.316  18.109
  199ETHO    O140590  15.020  11.443  18.196
  199ETHO    C140591  15.007  11.579  18.145
  199ETHO   H1140592  14.965  11.644  18.225
  199ETHO   H1340593  14.947  11.581  18.052
  199ETHO    C240594  15.151  11.640  18.116
  199ETHO   H2140595  15.218  11.603  18.196
  199ETHO   H2340596  15.159  11.750  18.129
  200ETHO    O140597  15.199  11.593  17.985
  200ETHO    C140598  15.167  11.683  17.876
  200ETHO   H1140599  15.056  11.685  17.872
  200ETHO   H1340600  15.202  11.782  17.911
  200ETHO    C240601  15.225  11.637  17.745
  200ETHO   H2140602  15.332  11.612  17.756
  200ETHO   H2340603  15.220  11.724  17.676
  201ETHO    O140604  15.152  11.526  17.682
  201ETHO    C140605  15.212  11.480  17.567
  201ETHO   H1140606  15.276  11.393  17.595
  201ETHO   H1340607  15.280  11.551  17.515
  201ETHO    C240608  15.108  11.426  17.468
  201ETHO   H2140609  15.033  11.361  17.518
  201ETHO   H2340610  15.147  11.347  17.400
  202ETHO    O140611  15.029  11.527  17.412
  202ETHO    C140612  15.040  11.531  17.269
  202ETHO   H1140613  15.144  11.512  17.238
  202ETHO   H1340614  14.975  11.450  17.230
  202ETHO    C240615  14.982  11.665  17.225
  202ETHO   H2140616  14.996  11.668  17.115
  202ETHO   H2340617  15.033  11.753  17.270
  203ETHO    O140618  14.847  11.672  17.272
  203ETHO    C140619  14.783  11.785  17.221
  203ETHO   H1140620  14.792  11.785  17.110
  203ETHO   H1340621  14.829  11.872  17.271
  203ETHO    C240622  14.630  11.788  17.251
  203ETHO   H2140623  14.590  11.889  17.226
  203ETHO   H2340624  14.621  11.759  17.358
  204ETHO    O140625  14.554  11.696  17.173
  204ETHO    C140626  14.416  11.726  17.167
  204ETHO   H1140627  14.376  11.719  17.271
  204ETHO   H1340628  14.399  11.821  17.112
  204ETHO    C240629  14.339  11.620  17.075
  204ETHO   H2140630  14.236  11.656  17.053
  204ETHO   H2340631  14.335  11.526  17.134
  205ETHO    O140632  14.403  11.607  16.950
  205ETHO    C140633  14.323  11.533  16.863
  205ETHO   H1140634  14.224  11.579  16.842
  205ETHO   H1340635  14.287  11.439  16.910
  205ETHO    C240636  14.417  11.498  16.746
  205ETHO   H2140637  14.373  11.408  16.699
  205ETHO   H2340638  14.518  11.467  16.779
  206ETHO    O140639  14.422  11.604  16.651
  206ETHO    C140640  14.534  11.609  16.566
  206ETHO   H1140641  14.625  11.582  16.623
  206ETHO   H1340642  14.514  11.532  16.488
  206ETHO    C240643  14.546  11.745  16.495
  206ETHO   H2140644  14.616  11.737  16.409
  206ETHO   H2340645  14.446  11.765  16.453
  207ETHO    O140646  14.574  11.852  16.590
  207ETHO    C140647  14.606  11.973  16.523
  207ETHO   H1140648  14.646  11.959  16.420
  207ETHO   H1340649  14.681  12.026  16.585
  207ETHO    C240650  14.479  12.053  16.535
  207ETHO   H2140651  14.498  12.149  16.482
  207ETHO   H2340652  14.443  12.065  16.639
  208ETHO    O140653  14.363  11.993  16.460
  208ETHO    C140654  14.284  12.093  16.404
  208ETHO   H1140655  14.240  12.156  16.483
  208ETHO   H1340656  14.342  12.161  16.338
  208ETHO    C240657  14.153  12.049  16.331
  208ETHO   H2140658  14.190  11.987  16.247
  208ETHO   H2340659  14.107  12.137  16.281
  209ETHO    O140660  14.079  11.963  16.415
  209ETHO    C140661  13.968  11.914  16.347
  209ETHO   H1140662  13.941  11.824  16.407
  209ETHO   H1340663  14.003  11.875  16.249
  209ETHO    C240664  13.843  12.001  16.331
  209ETHO   H2140665  13.766  11.951  16.269
  209ETHO   H2340666  13.867  12.096  16.279
  210ETHO    O140667  13.788  12.023  16.463
  210ETHO    C140668  13.651  12.052  16.473
  210ETHO   H1140669  13.630  12.099  16.572
  210ETHO   H1340670  13.623  12.117  16.388
  210ETHO    C240671  13.579  11.918  16.463
  210ETHO   H2140672  13.617  11.858  16.377
  210ETHO   H2340673  13.473  11.941  16.442
  211ETHO    O140674  13.585  11.843  16.580
  211ETHO    C140675  13.489  11.735  16.575
  211ETHO   H1140676  13.455  11.716  16.679
  211ETHO   H1340677  13.403  11.752  16.508
  211ETHO    C240678  13.561  11.616  16.515
  211ETHO   H2140679  13.652  11.592  16.574
  211ETHO   H2340680  13.592  11.643  16.412
  212ETHO    O140681  13.483  11.496  16.506
  212ETHO    C140682  13.402  11.482  16.388
  212ETHO   H1140683  13.327  11.564  16.390
  212ETHO   H1340684  13.464  11.491  16.296
  212ETHO    C240685  13.318  11.354  16.394
  212ETHO   H2140686  13.250  11.358  16.307
  212ETHO   H2340687  13.260  11.348  16.489
  213ETHO    O140688  13.413  11.248  16.386
  213ETHO    C140689  13.352  11.120  16.384
  213ETHO   H1140690  13.296  11.096  16.477
  213ETHO   H1340691  13.294  11.112  16.289
  213ETHO    C240692  13.462  11.019  16.351
  213ETHO   H2140693  13.538  11.009  16.431
  213ETHO   H2340694  13.514  11.046  16.257
  214ETHO    O140695  13.408  10.884  16.327
  214ETHO    C140696  13.375  10.826  16.450
  214ETHO   H1140697  13.323  10.886  16.527
  214ETHO   H1340698  13.475  10.808  16.496
  214ETHO    C240699  13.288  10.697  16.448
  214ETHO   H2140700  13.283  10.656  16.551
  214ETHO   H2340701  13.343  10.623  16.386
  215ETHO    O140702  13.164  10.731  16.391
  215ETHO    C140703  13.096  10.619  16.354
  215ETHO   H1140704  13.148  10.577  16.265
  215ETHO   H1340705  13.089  10.546  16.437
  215ETHO    C240706  12.955  10.651  16.317
  215ETHO   H2140707  12.907  10.694  16.408
  215ETHO   H2340708  12.889  10.563  16.301
  216ETHO    O140709  12.966  10.738  16.198
  216ETHO    C140710  12.841  10.797  16.163
  216ETHO   H1140711  12.822  10.866  16.248
  216ETHO   H1340712  12.759  10.723  16.156
  216ETHO    C240713  12.848  10.886  16.030
  216ETHO   H2140714  12.934  10.956  16.028
  216ETHO   H2340715  12.756  10.948  16.028
  217ETHO    O140716  12.855  10.806  15.905
  217ETHO    C140717  12.974  10.726  15.895
  217ETHO   H1140718  13.064  10.791  15.896
  217ETHO   H1340719  12.975  10.652  15.978
  217ETHO    C240720  12.967  10.638  15.763
  217ETHO   H2140721  12.862  10.600  15.757
  217ETHO   H2340722  13.031  10.547  15.771
  218ETHO    O140723  12.996  10.715  15.648
  218ETHO    C140724  12.959  10.640  15.530
  218ETHO   H1140725  12.850  10.636  15.514
  218ETHO   H1340726  12.985  10.534  15.552
  218ETHO    C240727  13.035  10.698  15.421
  218ETHO   H2140728  13.044  10.630  15.334
  218ETHO   H2340729  13.140  10.721  15.450
  219ETHO    O140730  12.972  10.818  15.382
  219ETHO    C140731  13.053  10.908  15.312
  219ETHO   H1140732  13.148  10.940  15.360
  219ETHO   H1340733  13.076  10.853  15.218
  219ETHO    C240734  12.974  11.042  15.299
  219ETHO   H2140735  12.953  11.083  15.400
  219ETHO   H2340736  12.874  11.017  15.258
  220ETHO    O140737  13.055  11.141  15.226
  220ETHO    C140738  12.990  11.272  15.221
  220ETHO   H1140739  12.975  11.305  15.325
  220ETHO   H1340740  12.893  11.268  15.166
  220ETHO    C240741  13.086  11.374  15.164
  220ETHO   H2140742  13.113  11.329  15.066
  220ETHO   H2340743  13.175  11.394  15.228
  221ETHO    O140744  13.017  11.500  15.146
  221ETHO    C140745  13.105  11.610  15.133
  221ETHO   H1140746  13.165  11.618  15.226
  221ETHO   H1340747  13.169  11.594  15.044
  221ETHO    C240748  13.037  11.752  15.118
  221ETHO   H2140749  12.979  11.758  15.023
  221ETHO   H2340750  13.124  11.820  15.102
  222ETHO    O140751  12.948  11.782  15.220
  222ETHO    C140752  12.906  11.913  15.216
  222ETHO   H1140753  12.997  11.975  15.208
  222ETHO   H1340754  12.846  11.926  15.124
  222ETHO    C240755  12.821  11.939  15.338
  222ETHO   H2140756  12.883  11.922  15.428
  222ETHO   H2340757  12.746  11.857  15.337
  223ETHO    O140758  12.756  12.066  15.330
  223ETHO    C140759  12.707  12.094  15.461
  223ETHO   H1140760  12.643  12.011  15.494
  223ETHO   H1340761  12.789  12.105  15.535
  223ETHO    C240762  12.631  12.228  15.454
  223ETHO   H2140763  12.528  12.216  15.414
  223ETHO   H2340764  12.682  12.294  15.382
  224ETHO    O140765  12.628  12.308  15.572
  224ETHO    C140766  12.572  12.249  15.687
  224ETHO   H1140767  12.472  12.209  15.660
  224ETHO   H1340768  12.634  12.165  15.725
  224ETHO    C240769  12.535  12.342  15.803
  224ETHO   H2140770  12.487  12.282  15.883
  224ETHO   H2340771  12.464  12.420  15.767
  225ETHO    O140772  12.648  12.405  15.864
  225ETHO    C140773  12.618  12.494  15.975
  225ETHO   H1140774  12.543  12.570  15.945
  225ETHO   H1340775  12.713  12.549  15.994
  225ETHO    C240776  12.589  12.429  16.114
  225ETHO   H2140777  12.519  12.345  16.098
  225ETHO   H2340778  12.548  12.510  16.178
  226ETHO    O140779  12.707  12.373  16.173
  226ETHO    C140780  12.684  12.327  16.304
  226ETHO   H1140781  12.581  12.328  16.346
  226ETHO   H1340782  12.719  12.222  16.298
  226ETHO    C240783  12.769  12.402  16.412
  226ETHO   H2140784  12.725  12.502  16.429
  226ETHO   H2340785  12.876  12.398  16.383
  227ETHO    O140786  12.753  12.330  16.531
  227ETHO    C140787  12.834  12.389  16.640
  227ETHO   H1140788  12.805  12.495  16.652
  227ETHO   H1340789  12.941  12.370  16.619
  227ETHO    C240790  12.812  12.321  16.779
  227ETHO   H2140791  12.710  12.278  16.790
  227ETHO   H2340792  12.842  12.398  16.853
  228ETHO    O140793  12.910  12.218  16.778
  228ETHO    C140794  12.858  12.103  16.710
  228ETHO   H1140795  12.775  12.056  16.767
  228ETHO   H1340796  12.817  12.138  16.612
  228ETHO    C240797  12.961  11.987  16.690
  228ETHO   H2140798  13.059  12.023  16.654
  228ETHO   H2340799  12.920  11.913  16.619
  229ETHO    O140800  12.983  11.905  16.810
  229ETHO    C140801  13.097  11.820  16.794
  229ETHO   H1140802  13.189  11.882  16.789
  229ETHO   H1340803  13.081  11.772  16.696
  229ETHO    C240804  13.119  11.710  16.896
  229ETHO   H2140805  13.212  11.657  16.866
  229ETHO   H2340806  13.027  11.648  16.893
  230ETHO    O140807  13.153  11.754  17.028
  230ETHO    C140808  13.153  11.647  17.117
  230ETHO   H1140809  13.050  11.606  17.127
  230ETHO   H1340810  13.223  11.569  17.081
  230ETHO    C240811  13.214  11.704  17.246
  230ETHO   H2140812  13.295  11.769  17.208
  230ETHO   H2340813  13.248  11.617  17.307
  231ETHO    O140814  13.123  11.794  17.317
  231ETHO    C140815  13.025  11.725  17.400
  231ETHO   H1140816  13.061  11.666  17.487
  231ETHO   H1340817  12.964  11.656  17.338
  231ETHO    C240818  12.932  11.831  17.462
  231ETHO   H2140819  12.841  11.778  17.498
  231ETHO   H2340820  12.904  11.899  17.378
  232ETHO    O140821  12.974  11.918  17.571
  232ETHO    C140822  13.097  11.988  17.540
  232ETHO   H1140823  13.185  11.920  17.534
  232ETHO   H1340824  13.072  12.037  17.444
  232ETHO    C240825  13.113  12.090  17.639
  232ETHO   H2140826  13.013  12.130  17.668
  232ETHO   H2340827  13.176  12.174  17.602
  233ETHO    O140828  13.173  12.029  17.756
  233ETHO    C140829  13.211  12.137  17.848
  233ETHO   H1140830  13.258  12.212  17.781
  233ETHO   H1340831  13.112  12.176  17.881
  233ETHO    C240832  13.286  12.097  17.974
  233ETHO   H2140833  13.349  12.179  18.013
  233ETHO   H2340834  13.354  12.011  17.955
  234ETHO    O140835  13.185  12.066  18.071
  234ETHO    C140836  13.242  12.007  18.194
  234ETHO   H1140837  13.247  11.897  18.180
  234ETHO   H1340838  13.345  12.043  18.211
  234ETHO    C240839  13.157  12.043  18.314
  234ETHO   H2140840  13.144  12.152  18.332
  234ETHO   H2340841  13.222  12.013  18.399
  235ETHO    O140842  13.035  11.967  18.322
  235ETHO    C140843  12.982  11.976  18.454
  235ETHO   H1140844  13.067  11.984  18.525
  235ETHO   H1340845  12.932  12.075  18.447
  235ETHO    C240846  12.872  11.879  18.508
  235ETHO   H2140847  12.784  11.868  18.441
  235ETHO   H2340848  12.837  11.929  18.601
  236ETHO    O140849  12.928  11.749  18.535
  236ETHO    C140850  12.851  11.682  18.638
  236ETHO   H1140851  12.746  11.690  18.603
  236ETHO   H1340852  12.871  11.734  18.734
  236ETHO    C240853  12.897  11.538  18.645
  236ETHO   H2140854  13.006  11.522  18.630
  236ETHO   H2340855  12.849  11.487  18.559
  237ETHO    O140856  12.862  11.478  18.772
  237ETHO    C140857  12.868  11.334  18.773
  237ETHO   H1140858  12.792  11.306  18.696
  237ETHO   H1340859  12.965  11.285  18.749
  237ETHO    C240860  12.818  11.281  18.902
  237ETHO   H2140861  12.879  11.324  18.984
  237ETHO   H2340862  12.822  11.170  18.902
  238ETHO    O140863  12.677  11.303  18.909
  238ETHO    C140864  12.618  11.264  19.035
  238ETHO   H1140865  12.682  11.302  19.118
  238ETHO   H1340866  12.611  11.153  19.040
  238ETHO    C240867  12.477  11.319  19.060
  238ETHO   H2140868  12.430  11.276  19.151
  238ETHO   H2340869  12.406  11.291  18.980
  239ETHO    O140870  12.487  11.461  19.076
  239ETHO    C140871  12.362  11.516  19.101
  239ETHO   H1140872  12.284  11.461  19.042
  239ETHO   H1340873  12.324  11.509  19.205
  239ETHO    C240874  12.360  11.663  19.058
  239ETHO   H2140875  12.420  11.672  18.965
  239ETHO   H2340876  12.257  11.693  19.027
  240ETHO    O140877  12.405  11.747  19.158
  240ETHO    C140878  12.303  11.763  19.256
  240ETHO   H1140879  12.264  11.666  19.293
  240ETHO   H1340880  12.224  11.831  19.218
  240ETHO    C240881  12.371  11.840  19.373
  240ETHO   H2140882  12.402  11.938  19.331
  240ETHO   H2340883  12.457  11.776  19.405
  241ETHO    O140884  12.290  11.863  19.494
  241ETHO    C140885  12.166  11.928  19.471
  241ETHO   H1140886  12.181  12.024  19.418
  241ETHO   H1340887  12.109  11.861  19.403
  241ETHO    C240888  12.099  11.972  19.604
  241ETHO   H2140889  12.014  12.042  19.586
  241ETHO   H2340890  12.175  12.032  19.658
  242ETHO    O140891  12.065  11.859  19.688
  242ETHO    C140892  11.985  11.899  19.801
  242ETHO   H1140893  11.887  11.936  19.764
  242ETHO   H1340894  12.039  11.982  19.850
  242ETHO    C240895  11.960  11.793  19.911
  242ETHO   H2140896  11.899  11.708  19.875
  242ETHO   H2340897  11.912  11.848  19.994
  243ETHO    O140898  12.076  11.740  19.966
  243ETHO    C140899  12.039  11.648  20.073
  243ETHO   H1140900  12.109  11.648  20.159
  243ETHO   H1340901  11.932  11.669  20.093
  243ETHO    C240902  12.049  11.512  20.004
  243ETHO   H2140903  11.992  11.506  19.908
  243ETHO   H2340904  12.003  11.431  20.063
  244ETHO    O140905  12.187  11.481  19.981
  244ETHO    C140906  12.204  11.348  19.935
  244ETHO   H1140907  12.117  11.338  19.867
  244ETHO   H1340908  12.194  11.267  20.010
  244ETHO    C240909  12.339  11.315  19.857
  244ETHO   H2140910  12.357  11.395  19.782
  244ETHO   H2340911  12.328  11.227  19.792
  245ETHO    O140912  12.453  11.311  19.939
  245ETHO    C140913  12.465  11.185  20.006
  245ETHO   H1140914  12.539  11.215  20.083
  245ETHO   H1340915  12.369  11.160  20.055
  245ETHO    C240916  12.521  11.064  19.920
  245ETHO   H2140917  12.565  10.986  19.986
  245ETHO   H2340918  12.612  11.094  19.863
  246ETHO    O140919  12.428  11.017  19.831
  246ETHO    C140920  12.496  10.929  19.739
  246ETHO   H1140921  12.550  10.855  19.801
  246ETHO   H1340922  12.566  10.983  19.671
  246ETHO    C240923  12.393  10.868  19.648
  246ETHO   H2140924  12.453  10.804  19.579
  246ETHO   H2340925  12.352  10.948  19.584
  247ETHO    O140926  12.285  10.798  19.710
  247ETHO    C140927  12.171  10.791  19.621
  247ETHO   H1140928  12.138  10.897  19.615
  247ETHO   H1340929  12.197  10.744  19.523
  247ETHO    C240930  12.066  10.716  19.709
  247ETHO   H2140931  12.061  10.767  19.808
  247ETHO   H2340932  11.969  10.725  19.655
  248ETHO    O140933  12.101  10.581  19.714
  248ETHO    C140934  12.063  10.503  19.604
  248ETHO   H1140935  11.952  10.503  19.610
  248ETHO   H1340936  12.097  10.540  19.505
  248ETHO    C240937  12.125  10.361  19.629
  248ETHO   H2140938  12.072  10.297  19.555
  248ETHO   H2340939  12.110  10.319  19.730
  249ETHO    O140940  12.261  10.372  19.596
  249ETHO    C140941  12.327  10.249  19.565
  249ETHO   H1140942  12.256  10.165  19.581
  249ETHO   H1340943  12.367  10.250  19.462
  249ETHO    C240944  12.452  10.231  19.657
  249ETHO   H2140945  12.457  10.120  19.667
  249ETHO   H2340946  12.436  10.284  19.753
  250ETHO    O140947  12.580  10.280  19.606
  250ETHO    C140948  12.680  10.245  19.695
  250ETHO   H1140949  12.675  10.305  19.788
  250ETHO   H1340950  12.683  10.142  19.737
  250ETHO    C240951  12.824  10.256  19.632
  250ETHO   H2140952  12.820  10.351  19.575
  250ETHO   H2340953  12.839  10.177  19.556
  251ETHO    O140954  12.936  10.252  19.722
  251ETHO    C140955  13.050  10.303  19.652
  251ETHO   H1140956  13.040  10.414  19.646
  251ETHO   H1340957  13.058  10.264  19.549
  251ETHO    C240958  13.184  10.268  19.724
  251ETHO   H2140959  13.181  10.273  19.835
  251ETHO   H2340960  13.261  10.340  19.689
  252ETHO    O140961  13.231  10.144  19.679
  252ETHO    C140962  13.361  10.111  19.721
  252ETHO   H1140963  13.435  10.185  19.684
  252ETHO   H1340964  13.361  10.110  19.832
  252ETHO    C240965  13.402   9.972  19.675
  252ETHO   H2140966  13.321   9.900  19.702
  252ETHO   H2340967  13.496   9.934  19.718
  253ETHO    O140968  13.423   9.964  19.535
  253ETHO    C140969  13.501   9.853  19.487
  253ETHO   H1140970  13.463   9.756  19.526
  253ETHO   H1340971  13.602   9.861  19.533
  253ETHO    C240972  13.506   9.879  19.342
  253ETHO   H2140973  13.407   9.892  19.295
  253ETHO   H2340974  13.547   9.788  19.293
  254ETHO    O140975  13.596   9.989  19.304
  254ETHO    C140976  13.604  10.023  19.168
  254ETHO   H1140977  13.618   9.925  19.119
  254ETHO   H1340978  13.508  10.071  19.140
  254ETHO    C240979  13.721  10.113  19.150
  254ETHO   H2140980  13.735  10.120  19.040
  254ETHO   H2340981  13.812  10.063  19.189
  255ETHO    O140982  13.701  10.241  19.209
  255ETHO    C140983  13.823  10.302  19.234
  255ETHO   H1140984  13.869  10.237  19.312
  255ETHO   H1340985  13.797  10.402  19.275
  255ETHO    C240986  13.925  10.320  19.115
  255ETHO   H2140987  13.969  10.422  19.120
  255ETHO   H2340988  13.873  10.321  19.018
  256ETHO    O140989  14.023  10.217  19.105
  256ETHO    C140990  14.147  10.248  19.162
  256ETHO   H1140991  14.219  10.265  19.079
  256ETHO   H1340992  14.130  10.333  19.232
  256ETHO    C240993  14.218  10.144  19.247
  256ETHO   H2140994  14.323  10.180  19.252
  256ETHO   H2340995  14.218  10.042  19.204
  257ETHO    O140996  14.157  10.144  19.373
  257ETHO    C140997  14.199  10.034  19.454
  257ETHO   H1140998  14.309  10.040  19.456
  257ETHO   H1340999  14.171   9.938  19.406
  257ETHO    C241000  14.164  10.040  19.605
  257ETHO   H2141001  14.212   9.958  19.662
  257ETHO   H2341002  14.053  10.035  19.610
  258ETHO    O141003  14.212  10.157  19.674
  258ETHO    C141004  14.180  10.148  19.815
  258ETHO   H1141005  14.078  10.107  19.830
  258ETHO   H1341006  14.232  10.058  19.852
  258ETHO    C241007  14.222  10.274  19.893
  258ETHO   H2141008  14.310  10.320  19.843
  258ETHO   H2341009  14.256  10.235  19.991
  259ETHO    O141010  14.125  10.378  19.898
  259ETHO    C141011  14.171  10.482  19.996
  259ETHO   H1141012  14.280  10.465  20.010
  259ETHO   H1341013  14.149  10.581  19.952
  259ETHO    C241014  14.108  10.480  20.135
  259ETHO   H2141015  14.162  10.548  20.205
  259ETHO   H2341016  14.113  10.374  20.167
  260ETHO    O141017  13.968  10.514  20.126
  260ETHO    C141018  13.905  10.523  20.248
  260ETHO   H1141019  13.894  10.422  20.292
  260ETHO   H1341020  13.968  10.588  20.312
  260ETHO    C241021  13.759  10.582  20.240
  260ETHO   H2141022  13.758  10.677  20.184
  260ETHO   H2341023  13.720  10.610  20.340
  261ETHO    O141024  13.672  10.485  20.186
  261ETHO    C141025  13.553  10.529  20.125
  261ETHO   H1141026  13.500  10.597  20.194
  261ETHO   H1341027  13.571  10.591  20.035
  261ETHO    C241028  13.459  10.413  20.086
  261ETHO   H2141029  13.485  10.384  19.982
  261ETHO   H2341030  13.360  10.464  20.089
  262ETHO    O141031  13.469  10.296  20.174
  262ETHO    C141032  13.386  10.192  20.133
  262ETHO   H1141033  13.369  10.206  20.024
  262ETHO   H1341034  13.286  10.200  20.180
  262ETHO    C241035  13.446  10.054  20.140
  262ETHO   H2141036  13.529  10.058  20.066
  262ETHO   H2341037  13.371   9.976  20.113
  263ETHO    O141038  13.493  10.020  20.269
  263ETHO    C141039  13.595   9.921  20.270
  263ETHO   H1141040  13.695   9.965  20.252
  263ETHO   H1341041  13.579   9.853  20.183
  263ETHO    C241042  13.610   9.842  20.406
  263ETHO   H2141043  13.647   9.919  20.477
  263ETHO   H2341044  13.691   9.766  20.395
  264ETHO    O141045  13.491   9.776  20.450
  264ETHO    C141046  13.459   9.649  20.402
  264ETHO   H1141047  13.377   9.607  20.464
  264ETHO   H1341048  13.543   9.582  20.431
  264ETHO    C241049  13.412   9.625  20.257
  264ETHO   H2141050  13.493   9.582  20.194
  264ETHO   H2341051  13.384   9.725  20.216
  265ETHO    O141052  13.306   9.539  20.257
  265ETHO    C141053  13.232   9.560  20.137
  265ETHO   H1141054  13.140   9.498  20.140
  265ETHO   H1341055  13.196   9.665  20.141
  265ETHO    C241056  13.290   9.518  19.997
  265ETHO   H2141057  13.215   9.493  19.919
  265ETHO   H2341058  13.343   9.421  20.003
  265ETHO    OZ41059  13.359   9.628  19.936
  265ETHO   HZ141060  13.402   9.593  19.857
    1ETHO    O141061   8.152   9.984   5.743
    1ETHO   HO141062   8.220   9.998   5.676
    1ETHO    C141063   8.065  10.102   5.715
    1ETHO   H1141064   8.068  10.133   5.608
    1ETHO   H1341065   8.099  10.188   5.776
    1ETHO    C241066   7.921  10.072   5.766
    1ETHO   H2141067   7.920  10.099   5.874
    1ETHO   H2341068   7.889   9.967   5.750
    2ETHO    O141069   7.822  10.137   5.683
    2ETHO    C141070   7.685  10.094   5.712
    2ETHO   H1141071   7.674   9.986   5.688
    2ETHO   H1341072   7.665  10.107   5.820
    2ETHO    C241073   7.590  10.167   5.626
    2ETHO   H2141074   7.483  10.140   5.639
    2ETHO   H2341075   7.613  10.147   5.519
    3ETHO    O141076   7.601  10.313   5.655
    3ETHO    C141077   7.530  10.388   5.561
    3ETHO   H1141078   7.427  10.346   5.567
    3ETHO   H1341079   7.552  10.363   5.455
    3ETHO    C241080   7.534  10.542   5.577
    3ETHO   H2141081   7.510  10.569   5.682
    3ETHO   H2341082   7.454  10.598   5.523
    4ETHO    O141083   7.658  10.604   5.565
    4ETHO    C141084   7.690  10.619   5.429
    4ETHO   H1141085   7.698  10.527   5.367
    4ETHO   H1341086   7.609  10.684   5.390
    4ETHO    C241087   7.827  10.685   5.409
    4ETHO   H2141088   7.828  10.772   5.478
    4ETHO   H2341089   7.838  10.729   5.307
    5ETHO    O141090   7.938  10.608   5.434
    5ETHO    C141091   8.058  10.679   5.403
    5ETHO   H1141092   8.055  10.738   5.309
    5ETHO   H1341093   8.077  10.753   5.483
    5ETHO    C241094   8.180  10.595   5.390
    5ETHO   H2141095   8.188  10.563   5.284
    5ETHO   H2341096   8.174  10.502   5.450
    6ETHO    O141097   8.296  10.676   5.426
    6ETHO    C141098   8.339  10.668   5.562
    6ETHO   H1141099   8.255  10.700   5.627
    6ETHO   H1341100   8.366  10.565   5.593
    6ETHO    C241101   8.464  10.756   5.586
    6ETHO   H2141102   8.557  10.712   5.542
    6ETHO   H2341103   8.479  10.749   5.696
    7ETHO    O141104   8.467  10.893   5.570
    7ETHO    C141105   8.448  10.932   5.436
    7ETHO   H1141106   8.503  10.860   5.372
    7ETHO   H1341107   8.337  10.929   5.422
    7ETHO    C241108   8.498  11.074   5.429
    7ETHO   H2141109   8.501  11.104   5.322
    7ETHO   H2341110   8.600  11.073   5.473
    8ETHO    O141111   8.410  11.164   5.500
    8ETHO    C141112   8.434  11.302   5.476
    8ETHO   H1141113   8.436  11.311   5.366
    8ETHO   H1341114   8.529  11.319   5.532
    8ETHO    C241115   8.331  11.401   5.531
    8ETHO   H2141116   8.234  11.366   5.491
    8ETHO   H2341117   8.361  11.496   5.482
    9ETHO    O141118   8.337  11.425   5.671
    9ETHO    C141119   8.210  11.457   5.719
    9ETHO   H1141120   8.191  11.554   5.668
    9ETHO   H1341121   8.138  11.377   5.690
    9ETHO    C241122   8.220  11.481   5.868
    9ETHO   H2141123   8.140  11.554   5.894
    9ETHO   H2341124   8.316  11.535   5.887
   10ETHO    O141125   8.203  11.359   5.944
   10ETHO    C141126   8.316  11.276   5.935
   10ETHO   H1141127   8.410  11.334   5.951
   10ETHO   H1341128   8.321  11.227   5.835
   10ETHO    C241129   8.306  11.160   6.034
   10ETHO   H2141130   8.381  11.087   5.999
   10ETHO   H2341131   8.213  11.100   6.029
   11ETHO    O141132   8.332  11.202   6.165
   11ETHO    C141133   8.341  11.089   6.256
   11ETHO   H1141134   8.236  11.058   6.274
   11ETHO   H1341135   8.400  11.013   6.200
   11ETHO    C241136   8.393  11.125   6.392
   11ETHO   H2141137   8.353  11.228   6.398
   11ETHO   H2341138   8.350  11.064   6.474
   12ETHO    O141139   8.537  11.131   6.399
   12ETHO    C141140   8.580  11.148   6.534
   12ETHO   H1141141   8.505  11.210   6.588
   12ETHO   H1341142   8.677  11.203   6.533
   12ETHO    C241143   8.591  11.004   6.595
   12ETHO   H2141144   8.505  10.942   6.562
   12ETHO   H2341145   8.588  11.022   6.705
   13ETHO    O141146   8.718  10.943   6.569
   13ETHO    C141147   8.716  10.849   6.467
   13ETHO   H1141148   8.670  10.759   6.511
   13ETHO   H1341149   8.657  10.893   6.383
   13ETHO    C241150   8.856  10.800   6.410
   13ETHO   H2141151   8.919  10.889   6.392
   13ETHO   H2341152   8.835  10.751   6.313
   14ETHO    O141153   8.925  10.714   6.490
   14ETHO    C141154   9.025  10.643   6.418
   14ETHO   H1141155   9.105  10.719   6.404
   14ETHO   H1341156   8.994  10.619   6.314
   14ETHO    C241157   9.063  10.518   6.498
   14ETHO   H2141158   9.142  10.457   6.448
   14ETHO   H2341159   8.981  10.447   6.520
   15ETHO    O141160   9.121  10.569   6.615
   15ETHO    C141161   9.132  10.465   6.713
   15ETHO   H1141162   9.030  10.435   6.747
   15ETHO   H1341163   9.183  10.378   6.666
   15ETHO    C241164   9.208  10.514   6.840
   15ETHO   H2141165   9.166  10.602   6.892
   15ETHO   H2341166   9.205  10.439   6.923
   16ETHO    O141167   9.349  10.546   6.808
   16ETHO    C141168   9.441  10.435   6.799
   16ETHO   H1141169   9.421  10.365   6.883
   16ETHO   H1341170   9.432  10.392   6.697
   16ETHO    C241171   9.586  10.495   6.796
   16ETHO   H2141172   9.591  10.546   6.698
   16ETHO   H2341173   9.654  10.408   6.804
   17ETHO    O141174   9.608  10.589   6.896
   17ETHO    C141175   9.744  10.623   6.902
   17ETHO   H1141176   9.800  10.544   6.957
   17ETHO   H1341177   9.792  10.625   6.802
   17ETHO    C241178   9.755  10.755   6.987
   17ETHO   H2141179   9.668  10.817   6.958
   17ETHO   H2341180   9.846  10.811   6.959
   18ETHO    O141181   9.750  10.721   7.127
   18ETHO    C141182   9.764  10.842   7.205
   18ETHO   H1141183   9.853  10.884   7.153
   18ETHO   H1341184   9.680  10.909   7.177
   18ETHO    C241185   9.793  10.826   7.355
   18ETHO   H2141186   9.812  10.933   7.381
   18ETHO   H2341187   9.884  10.771   7.386
   19ETHO    O141188   9.686  10.778   7.439
   19ETHO    C141189   9.738  10.742   7.564
   19ETHO   H1141190   9.797  10.829   7.600
   19ETHO   H1341191   9.813  10.660   7.564
   19ETHO    C241192   9.630  10.707   7.662
   19ETHO   H2141193   9.548  10.778   7.639
   19ETHO   H2341194   9.661  10.727   7.767
   20ETHO    O141195   9.586  10.578   7.635
   20ETHO    C141196   9.487  10.537   7.727
   20ETHO   H1141197   9.533  10.519   7.827
   20ETHO   H1341198   9.427  10.631   7.737
   20ETHO    C241199   9.411  10.410   7.685
   20ETHO   H2141200   9.343  10.383   7.769
   20ETHO   H2341201   9.489  10.331   7.685
   21ETHO    O141202   9.329  10.405   7.567
   21ETHO    C141203   9.286  10.268   7.542
   21ETHO   H1141204   9.262  10.222   7.640
   21ETHO   H1341205   9.369  10.221   7.485
   21ETHO    C241206   9.158  10.253   7.454
   21ETHO   H2141207   9.165  10.329   7.373
   21ETHO   H2341208   9.067  10.266   7.516
   22ETHO    O141209   9.167  10.128   7.393
   22ETHO    C141210   9.042  10.092   7.328
   22ETHO   H1141211   8.979  10.066   7.416
   22ETHO   H1341212   8.994  10.182   7.283
   22ETHO    C241213   9.057   9.980   7.227
   22ETHO   H2141214   9.110   9.890   7.264
   22ETHO   H2341215   8.959   9.942   7.190
   23ETHO    O141216   9.125  10.038   7.120
   23ETHO    C141217   9.130   9.948   7.015
   23ETHO   H1141218   9.032   9.904   6.989
   23ETHO   H1341219   9.200   9.867   7.046
   23ETHO    C241220   9.174  10.035   6.899
   23ETHO   H2141221   9.207   9.973   6.813
   23ETHO   H2341222   9.261  10.102   6.917
   24ETHO    O141223   9.071  10.125   6.859
   24ETHO    C141224   8.978  10.070   6.767
   24ETHO   H1141225   9.029  10.038   6.673
   24ETHO   H1341226   8.935   9.980   6.814
   24ETHO    C241227   8.860  10.167   6.743
   24ETHO   H2141228   8.804  10.134   6.652
   24ETHO   H2341229   8.882  10.275   6.756
   25ETHO    O141230   8.762  10.139   6.842
   25ETHO    C141231   8.797  10.172   6.980
   25ETHO   H1141232   8.844  10.273   6.983
   25ETHO   H1341233   8.870  10.092   7.008
   25ETHO    C241234   8.675  10.166   7.072
   25ETHO   H2141235   8.604  10.246   7.041
   25ETHO   H2341236   8.731  10.196   7.163
   26ETHO    O141237   8.611  10.034   7.092
   26ETHO    C141238   8.621   9.988   7.223
   26ETHO   H1141239   8.605   9.878   7.227
   26ETHO   H1341240   8.718  10.013   7.270
   26ETHO    C241241   8.513  10.071   7.296
   26ETHO   H2141242   8.516  10.176   7.259
   26ETHO   H2341243   8.542  10.067   7.403
   27ETHO    O141244   8.371  10.026   7.302
   27ETHO    C141245   8.301  10.101   7.394
   27ETHO   H1141246   8.326  10.208   7.375
   27ETHO   H1341247   8.335  10.070   7.495
   27ETHO    C241248   8.148  10.079   7.372
   27ETHO   H2141249   8.123  10.123   7.273
   27ETHO   H2341250   8.091  10.139   7.447
   28ETHO    O141251   8.123   9.940   7.386
   28ETHO    C141252   7.996   9.912   7.320
   28ETHO   H1141253   7.918   9.979   7.362
   28ETHO   H1341254   7.992   9.952   7.217
   28ETHO    C241255   7.968   9.760   7.314
   28ETHO   H2141256   7.871   9.754   7.260
   28ETHO   H2341257   7.960   9.706   7.411
   29ETHO    O141258   8.062   9.706   7.228
   29ETHO    C141259   8.050   9.569   7.220
   29ETHO   H1141260   7.946   9.542   7.190
   29ETHO   H1341261   8.070   9.514   7.315
   29ETHO    C241262   8.142   9.512   7.110
   29ETHO   H2141263   8.154   9.403   7.126
   29ETHO   H2341264   8.241   9.559   7.127
   30ETHO    O141265   8.092   9.545   6.984
   30ETHO    C141266   8.016   9.441   6.929
   30ETHO   H1141267   8.074   9.347   6.940
   30ETHO   H1341268   7.922   9.427   6.986
   30ETHO    C241269   7.980   9.462   6.781
   30ETHO   H2141270   7.948   9.363   6.743
   30ETHO   H2341271   8.071   9.494   6.725
   31ETHO    O141272   7.871   9.548   6.767
   31ETHO    C141273   7.847   9.585   6.638
   31ETHO   H1141274   7.798   9.685   6.637
   31ETHO   H1341275   7.937   9.608   6.578
   31ETHO    C241276   7.774   9.467   6.574
   31ETHO   H2141277   7.820   9.367   6.587
   31ETHO   H2341278   7.780   9.479   6.463
   32ETHO    O141279   7.641   9.456   6.621
   32ETHO    C141280   7.628   9.359   6.728
   32ETHO   H1141281   7.696   9.271   6.723
   32ETHO   H1341282   7.666   9.407   6.820
   32ETHO    C241283   7.482   9.332   6.763
   32ETHO   H2141284   7.420   9.423   6.748
   32ETHO   H2341285   7.484   9.293   6.867
   33ETHO    O141286   7.420   9.233   6.684
   33ETHO    C141287   7.279   9.241   6.691
   33ETHO   H1141288   7.242   9.238   6.795
   33ETHO   H1341289   7.243   9.333   6.639
   33ETHO    C241290   7.219   9.120   6.615
   33ETHO   H2141291   7.262   9.107   6.513
   33ETHO   H2341292   7.109   9.136   6.604
   34ETHO    O141293   7.224   9.001   6.693
   34ETHO    C141294   7.176   8.884   6.615
   34ETHO   H1141295   7.074   8.895   6.572
   34ETHO   H1341296   7.173   8.801   6.690
   34ETHO    C241297   7.257   8.825   6.502
   34ETHO   H2141298   7.203   8.740   6.455
   34ETHO   H2341299   7.348   8.792   6.557
   35ETHO    O141300   7.294   8.909   6.394
   35ETHO    C141301   7.356   8.846   6.288
   35ETHO   H1141302   7.445   8.789   6.321
   35ETHO   H1341303   7.295   8.771   6.235
   35ETHO    C241304   7.392   8.950   6.180
   35ETHO   H2141305   7.451   8.889   6.109
   35ETHO   H2341306   7.452   9.032   6.226
   36ETHO    O141307   7.283   9.006   6.106
   36ETHO    C141308   7.218   9.126   6.170
   36ETHO   H1141309   7.280   9.218   6.165
   36ETHO   H1341310   7.198   9.120   6.279
   36ETHO    C241311   7.084   9.159   6.108
   36ETHO   H2141312   7.009   9.078   6.119
   36ETHO   H2341313   7.104   9.174   5.999
   37ETHO    O141314   7.020   9.275   6.164
   37ETHO    C141315   6.887   9.294   6.110
   37ETHO   H1141316   6.862   9.204   6.049
   37ETHO   H1341317   6.812   9.284   6.191
   37ETHO    C241318   6.852   9.427   6.043
   37ETHO   H2141319   6.749   9.427   6.001
   37ETHO   H2341320   6.922   9.445   5.958
   38ETHO    O141321   6.851   9.542   6.133
   38ETHO    C141322   6.844   9.669   6.057
   38ETHO   H1141323   6.750   9.665   5.998
   38ETHO   H1341324   6.921   9.686   5.978
   38ETHO    C241325   6.826   9.798   6.138
   38ETHO   H2141326   6.754   9.793   6.222
   38ETHO   H2341327   6.803   9.882   6.068
   39ETHO    O141328   6.950   9.832   6.202
   39ETHO    C141329   6.948   9.972   6.240
   39ETHO   H1141330   6.925  10.039   6.155
   39ETHO   H1341331   6.876   9.973   6.325
   39ETHO    C241332   7.081  10.015   6.293
   39ETHO   H2141333   7.157   9.987   6.216
   39ETHO   H2341334   7.099   9.960   6.388
   40ETHO    O141335   7.073  10.154   6.333
   40ETHO    C141336   7.191  10.198   6.405
   40ETHO   H1141337   7.201  10.155   6.507
   40ETHO   H1341338   7.198  10.306   6.431
   40ETHO    C241339   7.314  10.172   6.322
   40ETHO   H2141340   7.384  10.244   6.370
   40ETHO   H2341341   7.304  10.204   6.216
   41ETHO    O141342   7.362  10.040   6.352
   41ETHO    C141343   7.489  10.022   6.280
   41ETHO   H1141344   7.477  10.068   6.180
   41ETHO   H1341345   7.571  10.072   6.337
   41ETHO    C241346   7.508   9.876   6.279
   41ETHO   H2141347   7.416   9.826   6.244
   41ETHO   H2341348   7.527   9.846   6.385
   42ETHO    O141349   7.619   9.824   6.206
   42ETHO    C141350   7.600   9.834   6.066
   42ETHO   H1141351   7.517   9.764   6.042
   42ETHO   H1341352   7.569   9.935   6.031
   42ETHO    C241353   7.721   9.790   5.992
   42ETHO   H2141354   7.704   9.793   5.883
   42ETHO   H2341355   7.741   9.687   6.028
   43ETHO    O141356   7.839   9.866   6.022
   43ETHO    C141357   7.947   9.786   5.972
   43ETHO   H1141358   7.934   9.677   5.993
   43ETHO   H1341359   7.961   9.797   5.862
   43ETHO    C241360   8.077   9.843   6.041
   43ETHO   H2141361   8.101   9.942   5.997
   43ETHO   H2341362   8.155   9.766   6.022
   44ETHO    O141363   8.042   9.850   6.180
   44ETHO    C141364   8.121   9.955   6.240
   44ETHO   H1141365   8.229   9.944   6.214
   44ETHO   H1341366   8.076  10.049   6.202
   44ETHO    C241367   8.101   9.967   6.391
   44ETHO   H2141368   8.146  10.064   6.418
   44ETHO   H2341369   8.142   9.888   6.457
   45ETHO    O141370   7.963   9.981   6.429
   45ETHO    C141371   7.946  10.009   6.568
   45ETHO   H1141372   8.038  10.054   6.612
   45ETHO   H1341373   7.932   9.909   6.615
   45ETHO    C241374   7.825  10.095   6.600
   45ETHO   H2141375   7.822  10.120   6.708
   45ETHO   H2341376   7.731  10.043   6.573
   46ETHO    O141377   7.837  10.219   6.536
   46ETHO    C141378   7.703  10.277   6.521
   46ETHO   H1141379   7.645  10.213   6.451
   46ETHO   H1341380   7.650  10.287   6.618
   46ETHO    C241381   7.709  10.426   6.463
   46ETHO   H2141382   7.780  10.482   6.527
   46ETHO   H2341383   7.604  10.458   6.481
   47ETHO    O141384   7.760  10.439   6.328
   47ETHO    C141385   7.802  10.577   6.305
   47ETHO   H1141386   7.867  10.569   6.215
   47ETHO   H1341387   7.859  10.617   6.392
   47ETHO    C241388   7.677  10.667   6.276
   47ETHO   H2141389   7.721  10.768   6.257
   47ETHO   H2341390   7.609  10.658   6.362
   48ETHO    O141391   7.606  10.623   6.164
   48ETHO    C141392   7.474  10.678   6.158
   48ETHO   H1141393   7.422  10.641   6.249
   48ETHO   H1341394   7.480  10.788   6.172
   48ETHO    C241395   7.408  10.635   6.026
   48ETHO   H2141396   7.312  10.690   6.021
   48ETHO   H2341397   7.463  10.675   5.938
   49ETHO    O141398   7.392  10.496   6.021
   49ETHO    C141399   7.357  10.448   5.888
   49ETHO   H1141400   7.448  10.409   5.837
   49ETHO   H1341401   7.322  10.527   5.819
   49ETHO    C241402   7.258  10.331   5.889
   49ETHO   H2141403   7.275  10.270   5.980
   49ETHO   H2341404   7.282  10.260   5.807
   50ETHO    O141405   7.124  10.376   5.887
   50ETHO    C141406   7.030  10.270   5.885
   50ETHO   H1141407   7.054  10.210   5.975
   50ETHO   H1341408   6.928  10.307   5.907
   50ETHO    C241409   7.030  10.181   5.757
   50ETHO   H2141410   6.959  10.096   5.770
   50ETHO   H2341411   7.129  10.132   5.753
   51ETHO    O141412   7.020  10.249   5.632
   51ETHO    C141413   6.893  10.306   5.623
   51ETHO   H1141414   6.891  10.399   5.684
   51ETHO   H1341415   6.827  10.229   5.669
   51ETHO    C241416   6.845  10.337   5.476
   51ETHO   H2141417   6.743  10.381   5.481
   51ETHO   H2341418   6.845  10.240   5.422
   52ETHO    O141419   6.930  10.429   5.406
   52ETHO    C141420   6.880  10.460   5.276
   52ETHO   H1141421   6.861  10.370   5.214
   52ETHO   H1341422   6.783  10.513   5.287
   52ETHO    C241423   6.978  10.555   5.217
   52ETHO   H2141424   7.011  10.632   5.290
   52ETHO   H2341425   6.929  10.609   5.133
   53ETHO    O141426   7.088  10.478   5.167
   53ETHO    C141427   7.216  10.542   5.170
   53ETHO   H1141428   7.205  10.621   5.093
   53ETHO   H1341429   7.228  10.581   5.274
   53ETHO    C241430   7.321  10.443   5.119
   53ETHO   H2141431   7.412  10.491   5.077
   53ETHO   H2341432   7.275  10.382   5.038
   54ETHO    O141433   7.371  10.358   5.217
   54ETHO    C141434   7.283  10.249   5.236
   54ETHO   H1141435   7.283  10.229   5.345
   54ETHO   H1341436   7.176  10.273   5.221
   54ETHO    C241437   7.330  10.124   5.169
   54ETHO   H2141438   7.332  10.140   5.059
   54ETHO   H2341439   7.253  10.045   5.181
   55ETHO    O141440   7.451  10.075   5.227
   55ETHO    C141441   7.519   9.979   5.145
   55ETHO   H1141442   7.450   9.897   5.115
   55ETHO   H1341443   7.542  10.036   5.052
   55ETHO    C241444   7.644   9.911   5.212
   55ETHO   H2141445   7.732   9.897   5.145
   55ETHO   H2341446   7.680   9.979   5.292
   56ETHO    O141447   7.611   9.780   5.271
   56ETHO    C141448   7.713   9.679   5.262
   56ETHO   H1141449   7.759   9.684   5.160
   56ETHO   H1341450   7.665   9.580   5.282
   56ETHO    C241451   7.837   9.690   5.344
   56ETHO   H2141452   7.881   9.792   5.346
   56ETHO   H2341453   7.910   9.621   5.296
   57ETHO    O141454   7.816   9.645   5.475
   57ETHO    C141455   7.935   9.664   5.550
   57ETHO   H1141456   8.024   9.687   5.487
   57ETHO   H1341457   7.930   9.750   5.621
   57ETHO    C241458   7.963   9.535   5.624
   57ETHO   H2141459   8.067   9.542   5.662
   57ETHO   H2341460   7.964   9.448   5.555
   58ETHO    O141461   7.880   9.524   5.744
   58ETHO    C141462   7.891   9.401   5.810
   58ETHO   H1141463   7.998   9.389   5.835
   58ETHO   H1341464   7.860   9.322   5.739
   58ETHO    C241465   7.798   9.393   5.932
   58ETHO   H2141466   7.842   9.470   5.998
   58ETHO   H2341467   7.804   9.294   5.982
   59ETHO    O141468   7.658   9.415   5.899
   59ETHO    C141469   7.582   9.400   6.018
   59ETHO   H1141470   7.596   9.301   6.065
   59ETHO   H1341471   7.615   9.473   6.094
   59ETHO    C241472   7.429   9.419   5.996
   59ETHO   H2141473   7.392   9.400   6.099
   59ETHO   H2341474   7.398   9.349   5.917
   60ETHO    O141475   7.404   9.557   5.961
   60ETHO    C141476   7.276   9.606   6.014
   60ETHO   H1141477   7.289   9.632   6.121
   60ETHO   H1341478   7.199   9.527   6.005
   60ETHO    C241479   7.233   9.730   5.943
   60ETHO   H2141480   7.316   9.802   5.925
   60ETHO   H2341481   7.166   9.791   6.008
   61ETHO    O141482   7.168   9.697   5.827
   61ETHO    C141483   7.127   9.815   5.756
   61ETHO   H1141484   7.090   9.896   5.823
   61ETHO   H1341485   7.207   9.851   5.689
   61ETHO    C241486   7.007   9.775   5.664
   61ETHO   H2141487   7.036   9.689   5.600
   61ETHO   H2341488   6.999   9.860   5.592
   62ETHO    O141489   6.885   9.758   5.728
   62ETHO    C141490   6.780   9.755   5.624
   62ETHO   H1141491   6.810   9.685   5.542
   62ETHO   H1341492   6.771   9.857   5.583
   62ETHO    C241493   6.655   9.710   5.699
   62ETHO   H2141494   6.668   9.608   5.742
   62ETHO   H2341495   6.584   9.704   5.614
   63ETHO    O141496   6.623   9.807   5.798
   63ETHO    C141497   6.496   9.784   5.852
   63ETHO   H1141498   6.420   9.771   5.772
   63ETHO   H1341499   6.492   9.702   5.928
   63ETHO    C241500   6.445   9.898   5.942
   63ETHO   H2141501   6.335   9.884   5.944
   63ETHO   H2341502   6.458  10.003   5.908
   64ETHO    O141503   6.491   9.913   6.075
   64ETHO    C141504   6.436  10.022   6.145
   64ETHO   H1141505   6.326  10.029   6.141
   64ETHO   H1341506   6.470  10.119   6.102
   64ETHO    C241507   6.493  10.031   6.288
   64ETHO   H2141508   6.602  10.049   6.283
   64ETHO   H2341509   6.493   9.927   6.327
   65ETHO    O141510   6.422  10.120   6.373
   65ETHO    C141511   6.511  10.167   6.479
   65ETHO   H1141512   6.599  10.214   6.430
   65ETHO   H1341513   6.460  10.246   6.538
   65ETHO    C241514   6.568  10.067   6.588
   65ETHO   H2141515   6.482  10.007   6.625
   65ETHO   H2341516   6.616  10.122   6.671
   66ETHO    O141517   6.678   9.988   6.552
   66ETHO    C141518   6.673   9.863   6.620
   66ETHO   H1141519   6.753   9.800   6.575
   66ETHO   H1341520   6.584   9.805   6.589
   66ETHO    C241521   6.684   9.872   6.768
   66ETHO   H2141522   6.663   9.773   6.813
   66ETHO   H2341523   6.610   9.937   6.819
   67ETHO    O141524   6.823   9.925   6.798
   67ETHO    C141525   6.904   9.844   6.875
   67ETHO   H1141526   6.940   9.892   6.968
   67ETHO   H1341527   6.852   9.752   6.910
   67ETHO    C241528   7.019   9.791   6.793
   67ETHO   H2141529   6.991   9.773   6.687
   67ETHO   H2341530   7.043   9.692   6.837
   68ETHO    O141531   7.129   9.870   6.823
   68ETHO    C141532   7.213   9.884   6.706
   68ETHO   H1141533   7.209   9.801   6.632
   68ETHO   H1341534   7.172   9.973   6.653
   68ETHO    C241535   7.362   9.919   6.728
   68ETHO   H2141536   7.369  10.005   6.798
   68ETHO   H2341537   7.401   9.957   6.632
   69ETHO    O141538   7.437   9.810   6.771
   69ETHO    C141539   7.566   9.847   6.825
   69ETHO   H1141540   7.636   9.884   6.746
   69ETHO   H1341541   7.557   9.934   6.894
   69ETHO    C241542   7.631   9.734   6.898
   69ETHO   H2141543   7.737   9.749   6.929
   69ETHO   H2341544   7.624   9.641   6.838
   70ETHO    O141545   7.556   9.718   7.024
   70ETHO    C141546   7.602   9.612   7.105
   70ETHO   H1141547   7.662   9.538   7.048
   70ETHO   H1341548   7.665   9.657   7.184
   70ETHO    C241549   7.486   9.536   7.161
   70ETHO   H2141550   7.405   9.603   7.197
   70ETHO   H2341551   7.532   9.478   7.244
   71ETHO    O141552   7.425   9.434   7.074
   71ETHO    C141553   7.307   9.379   7.129
   71ETHO   H1141554   7.228   9.446   7.091
   71ETHO   H1341555   7.310   9.388   7.240
   71ETHO    C241556   7.271   9.229   7.102
   71ETHO   H2141557   7.302   9.190   7.002
   71ETHO   H2341558   7.161   9.230   7.109
   72ETHO    O141559   7.317   9.135   7.196
   72ETHO    C141560   7.229   9.021   7.208
   72ETHO   H1141561   7.121   9.045   7.196
   72ETHO   H1341562   7.254   8.943   7.133
   72ETHO    C241563   7.250   8.961   7.346
   72ETHO   H2141564   7.357   8.930   7.355
   72ETHO   H2341565   7.194   8.865   7.337
   73ETHO    O141566   7.198   9.050   7.444
   73ETHO    C141567   7.215   8.994   7.575
   73ETHO   H1141568   7.325   8.985   7.591
   73ETHO   H1341569   7.170   8.892   7.578
   73ETHO    C241570   7.162   9.077   7.696
   73ETHO   H2141571   7.141   9.013   7.784
   73ETHO   H2341572   7.064   9.121   7.669
   74ETHO    O141573   7.256   9.178   7.730
   74ETHO    C141574   7.207   9.246   7.844
   74ETHO   H1141575   7.115   9.303   7.817
   74ETHO   H1341576   7.184   9.175   7.927
   74ETHO    C241577   7.308   9.342   7.905
   74ETHO   H2141578   7.390   9.274   7.936
   74ETHO   H2341579   7.275   9.398   7.995
   75ETHO    O141580   7.354   9.439   7.809
   75ETHO    C141581   7.458   9.516   7.867
   75ETHO   H1141582   7.549   9.451   7.868
   75ETHO   H1341583   7.435   9.548   7.971
   75ETHO    C241584   7.483   9.644   7.788
   75ETHO   H2141585   7.497   9.635   7.678
   75ETHO   H2341586   7.576   9.686   7.833
   76ETHO    O141587   7.379   9.743   7.812
   76ETHO    C141588   7.387   9.848   7.717
   76ETHO   H1141589   7.474   9.913   7.741
   76ETHO   H1341590   7.393   9.806   7.614
   76ETHO    C241591   7.266   9.951   7.733
   76ETHO   H2141592   7.275  10.018   7.645
   76ETHO   H2341593   7.288  10.005   7.828
   77ETHO    O141594   7.134   9.886   7.721
   77ETHO    C141595   7.025   9.975   7.707
   77ETHO   H1141596   7.059  10.059   7.644
   77ETHO   H1341597   7.012  10.027   7.805
   77ETHO    C241598   6.890   9.910   7.673
   77ETHO   H2141599   6.802   9.934   7.736
   77ETHO   H2341600   6.909   9.801   7.664
   78ETHO    O141601   6.853   9.949   7.541
   78ETHO    C141602   6.905   9.861   7.441
   78ETHO   H1141603   7.016   9.864   7.448
   78ETHO   H1341604   6.882   9.755   7.466
   78ETHO    C241605   6.859   9.897   7.297
   78ETHO   H2141606   6.911   9.838   7.218
   78ETHO   H2341607   6.878  10.006   7.289
   79ETHO    O141608   6.719   9.880   7.289
   79ETHO    C141609   6.662   9.950   7.182
   79ETHO   H1141610   6.715  10.048   7.179
   79ETHO   H1341611   6.683   9.889   7.091
   79ETHO    C241612   6.512   9.983   7.207
   79ETHO   H2141613   6.480  10.081   7.166
   79ETHO   H2341614   6.486   9.989   7.315
   80ETHO    O141615   6.419   9.892   7.149
   80ETHO    C141616   6.281   9.942   7.147
   80ETHO   H1141617   6.254   9.976   7.250
   80ETHO   H1341618   6.281  10.030   7.080
   80ETHO    C241619   6.176   9.845   7.103
   80ETHO   H2141620   6.228   9.772   7.037
   80ETHO   H2341621   6.104   9.911   7.049
   81ETHO    O141622   6.113   9.778   7.210
   81ETHO    C141623   5.981   9.827   7.231
   81ETHO   H1141624   5.937   9.852   7.132
   81ETHO   H1341625   5.929   9.742   7.280
   81ETHO    C241626   5.971   9.954   7.316
   81ETHO   H2141627   5.873   9.946   7.367
   81ETHO   H2341628   6.052   9.963   7.392
   82ETHO    O141629   5.967  10.071   7.232
   82ETHO    C141630   5.956  10.195   7.306
   82ETHO   H1141631   5.904  10.166   7.399
   82ETHO   H1341632   5.883  10.258   7.251
   82ETHO    C241633   6.095  10.263   7.321
   82ETHO   H2141634   6.070  10.366   7.354
   82ETHO   H2341635   6.138  10.262   7.219
   83ETHO    O141636   6.181  10.197   7.414
   83ETHO    C141637   6.306  10.256   7.425
   83ETHO   H1141638   6.349  10.235   7.325
   83ETHO   H1341639   6.299  10.366   7.435
   83ETHO    C241640   6.408  10.201   7.526
   83ETHO   H2141641   6.416  10.090   7.524
   83ETHO   H2341642   6.365  10.231   7.624
   84ETHO    O141643   6.539  10.251   7.504
   84ETHO    C141644   6.630  10.242   7.619
   84ETHO   H1141645   6.620  10.149   7.678
   84ETHO   H1341646   6.612  10.329   7.686
   84ETHO    C241647   6.779  10.241   7.573
   84ETHO   H2141648   6.799  10.170   7.490
   84ETHO   H2341649   6.832  10.203   7.662
   85ETHO    O141650   6.829  10.366   7.534
   85ETHO    C141651   6.970  10.364   7.532
   85ETHO   H1141652   7.011  10.332   7.630
   85ETHO   H1341653   7.011  10.288   7.462
   85ETHO    C241654   7.030  10.501   7.487
   85ETHO   H2141655   6.973  10.539   7.400
   85ETHO   H2341656   7.137  10.482   7.465
   86ETHO    O141657   7.027  10.608   7.587
   86ETHO    C141658   7.102  10.721   7.540
   86ETHO   H1141659   7.035  10.807   7.564
   86ETHO   H1341660   7.112  10.720   7.430
   86ETHO    C241661   7.232  10.740   7.619
   86ETHO   H2141662   7.226  10.709   7.726
   86ETHO   H2341663   7.242  10.851   7.622
   87ETHO    O141664   7.343  10.674   7.562
   87ETHO    C141665   7.457  10.674   7.640
   87ETHO   H1141666   7.469  10.770   7.695
   87ETHO   H1341667   7.434  10.597   7.717
   87ETHO    C241668   7.580  10.659   7.554
   87ETHO   H2141669   7.590  10.754   7.498
   87ETHO   H2341670   7.578  10.576   7.480
   88ETHO    O141671   7.693  10.642   7.632
   88ETHO    C141672   7.810  10.648   7.553
   88ETHO   H1141673   7.816  10.745   7.500
   88ETHO   H1341674   7.797  10.571   7.474
   88ETHO    C241675   7.931  10.628   7.647
   88ETHO   H2141676   8.023  10.609   7.587
   88ETHO   H2341677   7.926  10.538   7.712
   89ETHO    O141678   7.963  10.744   7.728
   89ETHO    C141679   7.891  10.747   7.849
   89ETHO   H1141680   7.786  10.765   7.820
   89ETHO   H1341681   7.912  10.654   7.907
   89ETHO    C241682   7.962  10.853   7.941
   89ETHO   H2141683   7.902  10.867   8.034
   89ETHO   H2341684   7.942  10.952   7.895
   90ETHO    O141685   8.094  10.830   7.982
   90ETHO    C141686   8.155  10.916   8.074
   90ETHO   H1141687   8.103  10.908   8.172
   90ETHO   H1341688   8.255  10.878   8.102
   90ETHO    C241689   8.183  11.058   8.017
   90ETHO   H2141690   8.230  11.058   7.916
   90ETHO   H2341691   8.250  11.106   8.092
   91ETHO    O141692   8.063  11.134   8.021
   91ETHO    C141693   8.080  11.251   7.949
   91ETHO   H1141694   8.166  11.316   7.979
   91ETHO   H1341695   8.066  11.216   7.845
   91ETHO    C241696   7.966  11.351   7.975
   91ETHO   H2141697   7.876  11.286   7.985
   91ETHO   H2341698   7.948  11.397   7.876
   92ETHO    O141699   7.989  11.445   8.076
   92ETHO    C141700   7.884  11.541   8.094
   92ETHO   H1141701   7.872  11.601   8.001
   92ETHO   H1341702   7.794  11.479   8.116
   92ETHO    C241703   7.931  11.614   8.220
   92ETHO   H2141704   7.961  11.540   8.297
   92ETHO   H2341705   7.850  11.682   8.253
   93ETHO    O141706   8.043  11.695   8.185
   93ETHO    C141707   8.081  11.766   8.300
   93ETHO   H1141708   8.074  11.704   8.392
   93ETHO   H1341709   8.009  11.848   8.322
   93ETHO    C241710   8.215  11.834   8.292
   93ETHO   H2141711   8.207  11.930   8.349
   93ETHO   H2341712   8.237  11.870   8.190
   94ETHO    O141713   8.311  11.737   8.338
   94ETHO    C141714   8.436  11.796   8.357
   94ETHO   H1141715   8.483  11.837   8.265
   94ETHO   H1341716   8.429  11.885   8.422
   94ETHO    C241717   8.520  11.705   8.449
   94ETHO   H2141718   8.464  11.657   8.532
   94ETHO   H2341719   8.592  11.772   8.501
   95ETHO    O141720   8.593  11.592   8.397
   95ETHO    C141721   8.665  11.631   8.284
   95ETHO   H1141722   8.743  11.707   8.308
   95ETHO   H1341723   8.596  11.661   8.202
   95ETHO    C241724   8.729  11.510   8.217
   95ETHO   H2141725   8.786  11.543   8.128
   95ETHO   H2341726   8.648  11.446   8.174
   96ETHO    O141727   8.815  11.429   8.302
   96ETHO    C141728   8.935  11.502   8.320
   96ETHO   H1141729   9.007  11.467   8.243
   96ETHO   H1341730   8.915  11.607   8.290
   96ETHO    C241731   8.978  11.500   8.466
   96ETHO   H2141732   9.026  11.401   8.477
   96ETHO   H2341733   8.884  11.513   8.524
   97ETHO    O141734   9.061  11.611   8.500
   97ETHO    C141735   9.116  11.597   8.632
   97ETHO   H1141736   9.185  11.510   8.639
   97ETHO   H1341737   9.033  11.605   8.705
   97ETHO    C241738   9.212  11.714   8.665
   97ETHO   H2141739   9.210  11.722   8.776
   97ETHO   H2341740   9.175  11.808   8.620
   98ETHO    O141741   9.339  11.693   8.611
   98ETHO    C141742   9.438  11.646   8.705
   98ETHO   H1141743   9.405  11.551   8.753
   98ETHO   H1341744   9.519  11.613   8.636
   98ETHO    C241745   9.477  11.750   8.808
   98ETHO   H2141746   9.447  11.849   8.768
   98ETHO   H2341747   9.587  11.742   8.816
   99ETHO    O141748   9.406  11.710   8.933
   99ETHO    C141749   9.418  11.804   9.039
   99ETHO   H1141750   9.384  11.903   9.002
   99ETHO   H1341751   9.527  11.825   9.044
   99ETHO    C241752   9.360  11.754   9.175
   99ETHO   H2141753   9.405  11.657   9.205
   99ETHO   H2341754   9.252  11.730   9.164
  100ETHO    O141755   9.376  11.858   9.274
  100ETHO    C141756   9.302  11.847   9.393
  100ETHO   H1141757   9.198  11.884   9.375
  100ETHO   H1341758   9.287  11.737   9.404
  100ETHO    C241759   9.379  11.917   9.497
  100ETHO   H2141760   9.473  11.865   9.526
  100ETHO   H2341761   9.314  11.916   9.586
  101PROX    O141762   9.393  12.056   9.471
  101PROX    C141763   9.486  12.120   9.555
  101PROX   H1141764   9.459  12.112   9.663
  101PROX   H1341765   9.588  12.081   9.537
  101PROX    C241766   9.501  12.267   9.526
  101PROX   H2141767   9.401  12.310   9.552
  101PROX    C341768   9.527  12.306   9.379
  101PROX   H3141769   9.450  12.263   9.311
  101PROX   H3241770   9.513  12.415   9.366
  101PROX   H3341771   9.630  12.267   9.359
  102PROX    O141772   9.600  12.319   9.612
  102PROX    C141773   9.538  12.377   9.730
  102PROX   H1141774   9.457  12.448   9.704
  102PROX   H1341775   9.498  12.294   9.793
  102PROX    C241776   9.644  12.447   9.831
  102PROX   H2141777   9.731  12.383   9.854
  102PROX    C341778   9.569  12.479   9.963
  102PROX   H3141779   9.530  12.389  10.016
  102PROX   H3241780   9.625  12.538  10.038
  102PROX   H3341781   9.485  12.547   9.936
  103PROX    O141782   9.695  12.563   9.768
  103PROX    C141783   9.783  12.528   9.660
  103PROX   H1141784   9.834  12.431   9.681
  103PROX   H1341785   9.716  12.511   9.573
  103PROX    C241786   9.897  12.635   9.631
  103PROX   H2141787   9.865  12.736   9.665
  103PROX    C341788   9.934  12.622   9.478
  103PROX   H3141789   9.845  12.660   9.424
  103PROX   H3241790  10.019  12.688   9.453
  103PROX   H3341791   9.959  12.519   9.442
  104PROX    O141792  10.016  12.604   9.694
  104PROX    C141793  10.009  12.612   9.843
  104PROX   H1141794  10.001  12.722   9.860
  104PROX   H1341795   9.931  12.543   9.881
  104PROX    C241796  10.148  12.574   9.906
  104PROX   H2141797  10.133  12.567  10.016
  104PROX    C341798  10.232  12.694   9.862
  104PROX   H3141799  10.217  12.716   9.754
  104PROX   H3241800  10.206  12.780   9.926
  104PROX   H3341801  10.341  12.675   9.876
  105PROX    O141802  10.187  12.451   9.854
  105PROX    C141803  10.294  12.394   9.929
  105PROX   H1141804  10.362  12.477   9.959
  105PROX   H1341805  10.244  12.348  10.017
  105PROX    C241806  10.365  12.302   9.835
  105PROX   H2141807  10.393  12.376   9.757
  105PROX    C341808  10.271  12.200   9.766
  105PROX   H3141809  10.177  12.245   9.728
  105PROX   H3241810  10.329  12.154   9.683
  105PROX   H3341811  10.237  12.118   9.833
  106PROX    O141812  10.488  12.264   9.891
  106PROX    C141813  10.563  12.195   9.794
  106PROX   H1141814  10.524  12.095   9.765
  106PROX   H1341815  10.567  12.258   9.702
  106PROX    C241816  10.709  12.173   9.841
  106PROX   H2141817  10.748  12.273   9.873
  106PROX    C341818  10.807  12.121   9.739
  106PROX   H3141819  10.775  12.019   9.706
  106PROX   H3241820  10.804  12.186   9.650
  106PROX   H3341821  10.912  12.120   9.776
  107PROX    O141822  10.711  12.084   9.950
  107PROX    C141823  10.834  12.093  10.027
  107PROX   H1141824  10.907  12.168   9.990
  107PROX   H1341825  10.814  12.112  10.134
  107PROX    C241826  10.902  11.957  10.020
  107PROX   H2141827  10.905  11.933   9.912
  107PROX    C341828  10.829  11.835  10.082
  107PROX   H3141829  10.808  11.838  10.191
  107PROX   H3241830  10.733  11.826  10.027
  107PROX   H3341831  10.893  11.747  10.061
  108PROX    O141832  11.035  11.973  10.070
  108PROX    C141833  11.050  11.990  10.210
  108PROX   H1141834  10.982  12.069  10.249
  108PROX   H1341835  11.024  11.894  10.259
  108PROX    C241836  11.204  12.016  10.236
  108PROX   H2141837  11.267  11.930  10.205
  108PROX    C341838  11.258  12.029  10.382
  108PROX   H3141839  11.209  12.110  10.442
  108PROX   H3241840  11.225  11.941  10.442
  108PROX   H3341841  11.369  12.033  10.388
  109PROX    O141842  11.251  12.135  10.164
  109PROX    C141843  11.371  12.113  10.097
  109PROX   H1141844  11.405  12.218  10.087
  109PROX   H1341845  11.442  12.062  10.164
  109PROX    C241846  11.349  12.036   9.963
  109PROX   H2141847  11.244  12.028   9.927
  109PROX    C341848  11.406  11.889   9.974
  109PROX   H3141849  11.405  11.852   9.869
  109PROX   H3241850  11.510  11.885  10.011
  109PROX   H3341851  11.340  11.828  10.040
  110PROX    O141852  11.431  12.094   9.861
  110PROX    C141853  11.375  12.214   9.811
  110PROX   H1141854  11.325  12.267   9.895
  110PROX   H1341855  11.447  12.284   9.763
  110PROX    C241856  11.271  12.198   9.707
  110PROX   H2141857  11.193  12.125   9.738
  110PROX    C341858  11.331  12.151   9.579
  110PROX   H3141859  11.398  12.062   9.584
  110PROX   H3241860  11.257  12.138   9.497
  110PROX   H3341861  11.391  12.236   9.539
  111PROX    O141862  11.215  12.327   9.679
  111PROX    C141863  11.078  12.311   9.642
  111PROX   H1141864  11.052  12.229   9.572
  111PROX   H1341865  11.018  12.289   9.734
  111PROX    C241866  11.041  12.441   9.565
  111PROX   H2141867  11.120  12.465   9.490
  111PROX    C341868  11.032  12.555   9.669
  111PROX   H3141869  11.120  12.557   9.735
  111PROX   H3241870  11.025  12.651   9.613
  111PROX   H3341871  10.942  12.549   9.735
  112PROX    O141872  10.913  12.425   9.497
  112PROX    C141873  10.881  12.537   9.405
  112PROX   H1141874  10.880  12.634   9.459
  112PROX   H1341875  10.972  12.549   9.343
  112PROX    C241876  10.761  12.518   9.309
  112PROX   H2141877  10.779  12.420   9.260
  112PROX    C341878  10.772  12.625   9.206
  112PROX   H3141879  10.681  12.640   9.144
  112PROX   H3241880  10.805  12.729   9.226
  112PROX   H3341881  10.858  12.592   9.144
  113PROX    O141882  10.634  12.502   9.370
  113PROX    C141883  10.589  12.613   9.446
  113PROX   H1141884  10.673  12.680   9.474
  113PROX   H1341885  10.526  12.677   9.381
  113PROX    C241886  10.503  12.564   9.569
  113PROX   H2141887  10.501  12.453   9.569
  113PROX    C341888  10.355  12.600   9.547
  113PROX   H3141889  10.340  12.709   9.534
  113PROX   H3241890  10.322  12.547   9.455
  113PROX   H3341891  10.292  12.578   9.635
  114PROX    O141892  10.549  12.617   9.694
  114PROX    C141893  10.647  12.541   9.747
  114PROX   H1141894  10.603  12.441   9.765
  114PROX   H1341895  10.730  12.535   9.673
  114PROX    C241896  10.692  12.593   9.880
  114PROX   H2141897  10.607  12.600   9.950
  114PROX    C341898  10.743  12.741   9.882
  114PROX   H3141899  10.789  12.742   9.983
  114PROX   H3241900  10.817  12.759   9.800
  114PROX   H3341901  10.661  12.814   9.870
  115PROX    O141902  10.791  12.502   9.933
  115PROX    C141903  10.807  12.501  10.071
  115PROX   H1141904  10.761  12.590  10.120
  115PROX   H1341905  10.743  12.419  10.109
  115PROX    C241906  10.959  12.464  10.113
  115PROX   H2141907  10.996  12.384  10.045
  115PROX    C341908  10.963  12.395  10.255
  115PROX   H3141909  10.923  12.292  10.248
  115PROX   H3241910  11.072  12.392  10.274
  115PROX   H3341911  10.902  12.449  10.330
  116PROX    O141912  11.046  12.575  10.123
  116PROX    C141913  11.086  12.627   9.994
  116PROX   H1141914  11.157  12.562   9.939
  116PROX   H1341915  11.001  12.657   9.929
  116PROX    C241916  11.163  12.761  10.017
  116PROX   H2141917  11.263  12.735  10.057
  116PROX    C341918  11.095  12.850  10.120
  116PROX   H3141919  10.995  12.879  10.081
  116PROX   H3241920  11.082  12.807  10.222
  116PROX   H3341921  11.152  12.940  10.152
  117PROX    O141922  11.173  12.834   9.890
  117PROX    C141923  11.241  12.962   9.900
  117PROX   H1141924  11.187  13.029   9.970
  117PROX   H1341925  11.346  12.962   9.938
  117PROX    C241926  11.239  13.033   9.767
  117PROX   H2141927  11.260  12.965   9.681
  117PROX    C341928  11.342  13.137   9.757
  117PROX   H3141929  11.443  13.092   9.750
  117PROX   H3241930  11.317  13.201   9.669
  117PROX   H3341931  11.333  13.214   9.837
  118PROX    O141932  11.117  13.098   9.736
  118PROX    C141933  11.012  13.010   9.710
  118PROX   H1141934  11.025  12.956   9.614
  118PROX   H1341935  10.989  12.933   9.787
  118PROX    C241936  10.886  13.098   9.689
  118PROX   H2141937  10.912  13.152   9.595
  118PROX    C341938  10.854  13.202   9.799
  118PROX   H3141939  10.756  13.248   9.777
  118PROX   H3241940  10.843  13.137   9.888
  118PROX   H3341941  10.931  13.278   9.822
  119PROX    O141942  10.775  13.013   9.675
  119PROX    C141943  10.670  13.064   9.592
  119PROX   H1141944  10.657  13.171   9.618
  119PROX   H1341945  10.705  13.051   9.488
  119PROX    C241946  10.532  12.987   9.622
  119PROX   H2141947  10.554  12.878   9.622
  119PROX    C341948  10.433  13.015   9.508
  119PROX   H3141949  10.340  12.967   9.546
  119PROX   H3241950  10.399  13.121   9.500
  119PROX   H3341951  10.464  12.976   9.410
  120PROX    O141952  10.456  13.027   9.735
  120PROX    C141953  10.505  12.996   9.868
  120PROX   H1141954  10.482  12.888   9.882
  120PROX   H1341955  10.616  13.010   9.873
  120PROX    C241956  10.433  13.081   9.980
  120PROX   H2141957  10.326  13.067   9.956
  120PROX    C341958  10.475  13.224   9.963
  120PROX   H3141959  10.470  13.248   9.854
  120PROX   H3241960  10.395  13.286  10.009
  120PROX   H3341961  10.580  13.243   9.993
  121PROX    O141962  10.462  13.019  10.102
  121PROX    C141963  10.375  13.058  10.210
  121PROX   H1141964  10.384  13.168  10.216
  121PROX   H1341965  10.272  13.025  10.185
  121PROX    C241966  10.404  12.972  10.337
  121PROX   H2141967  10.385  12.867  10.306
  121PROX    C341968  10.313  13.020  10.452
  121PROX   H3141969  10.210  13.038  10.416
  121PROX   H3241970  10.312  12.945  10.535
  121PROX   H3341971  10.358  13.111  10.497
  122PROX    O141972  10.535  12.988  10.374
  122PROX    C141973  10.576  12.906  10.487
  122PROX   H1141974  10.550  12.947  10.587
  122PROX   H1341975  10.532  12.804  10.491
  122PROX    C241976  10.726  12.875  10.475
  122PROX   H2141977  10.770  12.977  10.463
  122PROX    C341978  10.755  12.791  10.348
  122PROX   H3141979  10.711  12.689  10.353
  122PROX   H3241980  10.693  12.830  10.265
  122PROX   H3341981  10.860  12.788  10.312
  123PROX    O141982  10.785  12.814  10.592
  123PROX    C141983  10.930  12.839  10.604
  123PROX   H1141984  10.967  12.851  10.500
  123PROX   H1341985  10.945  12.937  10.655
  123PROX    C241986  11.000  12.727  10.674
  123PROX   H2141987  11.106  12.748  10.696
  123PROX    C341988  11.009  12.599  10.585
  123PROX   H3141989  11.077  12.615  10.498
  123PROX   H3241990  11.040  12.511  10.646
  123PROX   H3341991  10.907  12.590  10.542
  124PROX    O141992  10.943  12.703  10.808
  124PROX    C141993  11.005  12.762  10.916
  124PROX   H1141994  11.086  12.689  10.935
  124PROX   H1341995  11.049  12.858  10.881
  124PROX    C241996  10.921  12.764  11.039
  124PROX   H2141997  10.846  12.846  11.034
  124PROX    C341998  11.005  12.763  11.161
  124PROX   H3141999  10.951  12.751  11.257
  124PROX   H3242000  11.074  12.677  11.153
  124PROX   H3342001  11.066  12.855  11.166
  125PROX    O142002  10.845  12.644  11.047
  125PROX    C142003  10.719  12.649  10.978
  125PROX   H1142004  10.652  12.725  11.024
  125PROX   H1342005  10.730  12.673  10.870
  125PROX    C242006  10.655  12.512  10.992
  125PROX   H2142007  10.624  12.497  11.098
  125PROX    C342008  10.760  12.404  10.951
  125PROX   H3142009  10.712  12.306  10.975
  125PROX   H3242010  10.783  12.414  10.842
  125PROX   H3342011  10.855  12.409  11.007
  126PROX    O142012  10.544  12.507  10.904
  126PROX    C142013  10.480  12.382  10.897
  126PROX   H1142014  10.533  12.313  10.828
  126PROX   H1342015  10.471  12.335  10.997
  126PROX    C242016  10.344  12.409  10.831
  126PROX   H2142017  10.360  12.459  10.734
  126PROX    C342018  10.251  12.497  10.909
  126PROX   H3142019  10.150  12.488  10.864
  126PROX   H3242020  10.252  12.466  11.016
  126PROX   H3342021  10.289  12.601  10.909
  127PROX    O142022  10.263  12.290  10.827
  127PROX    C142023  10.309  12.186  10.738
  127PROX   H1142024  10.272  12.229  10.642
  127PROX   H1342025  10.419  12.177  10.739
  127PROX    C242026  10.245  12.055  10.778
  127PROX   H2142027  10.136  12.072  10.791
  127PROX    C342028  10.303  12.008  10.913
  127PROX   H3142029  10.393  11.949  10.882
  127PROX   H3242030  10.335  12.094  10.975
  127PROX   H3342031  10.234  11.951  10.979
  128PROX    O142032  10.257  11.963  10.670
  128PROX    C142033  10.184  11.838  10.695
  128PROX   H1142034  10.233  11.776  10.617
  128PROX   H1342035  10.200  11.779  10.787
  128PROX    C242036  10.032  11.844  10.659
  128PROX   H2142037   9.999  11.739  10.643
  128PROX    C342038  10.000  11.919  10.532
  128PROX   H3142039   9.900  11.883  10.497
  128PROX   H3242040  10.000  12.028  10.554
  128PROX   H3342041  10.076  11.893  10.455
  129PROX    O142042   9.952  11.895  10.765
  129PROX    C142043   9.819  11.846  10.772
  129PROX   H1142044   9.764  11.851  10.676
  129PROX   H1342045   9.834  11.740  10.801
  129PROX    C242046   9.742  11.913  10.886
  129PROX   H2142047   9.818  11.925  10.966
  129PROX    C342048   9.630  11.820  10.934
  129PROX   H3142049   9.670  11.727  10.979
  129PROX   H3242050   9.571  11.871  11.013
  129PROX   H3342051   9.560  11.794  10.851
  130PROX    O142052   9.689  12.037  10.845
  130PROX    C142053   9.787  12.141  10.815
  130PROX   H1142054   9.885  12.103  10.779
  130PROX   H1342055   9.752  12.218  10.743
  130PROX    C242056   9.810  12.220  10.944
  130PROX   H2142057   9.711  12.268  10.965
  130PROX    C342058   9.923  12.329  10.919
  130PROX   H3142059  10.025  12.286  10.918
  130PROX   H3242060   9.920  12.372  10.816
  130PROX   H3342061   9.909  12.412  10.992
  131PROX    O142062   9.844  12.130  11.048
  131PROX    C142063   9.863  12.183  11.173
  131PROX   H1142064   9.956  12.243  11.184
  131PROX   H1342065   9.770  12.237  11.203
  131PROX    C242066   9.884  12.059  11.271
  131PROX   H2142067   9.944  11.981  11.219
  131PROX    C342068   9.747  11.997  11.316
  131PROX   H3142069   9.687  12.075  11.368
  131PROX   H3242070   9.689  11.961  11.228
  131PROX   H3342071   9.754  11.907  11.380
  132PROX    O142072   9.952  12.101  11.383
  132PROX    C142073  10.089  12.136  11.356
  132PROX   H1142074  10.124  12.090  11.261
  132PROX   H1342075  10.105  12.245  11.341
  132PROX    C242076  10.183  12.085  11.471
  132PROX   H2142077  10.170  11.975  11.468
  132PROX    C342078  10.149  12.139  11.611
  132PROX   H3142079  10.197  12.080  11.692
  132PROX   H3242080  10.180  12.245  11.625
  132PROX   H3342081  10.039  12.144  11.626
  133PROX    O142082  10.316  12.120  11.445
  133PROX    C142083  10.379  12.050  11.338
  133PROX   H1142084  10.372  11.940  11.352
  133PROX   H1342085  10.333  12.070  11.239
  133PROX    C242086  10.524  12.096  11.338
  133PROX   H2142087  10.567  12.091  11.441
  133PROX    C342088  10.523  12.244  11.291
  133PROX   H3142089  10.480  12.304  11.373
  133PROX   H3242090  10.628  12.279  11.274
  133PROX   H3342091  10.468  12.266  11.197
  134PROX    O142092  10.601  12.007  11.248
  134PROX    C142093  10.567  12.012  11.107
  134PROX   H1142094  10.511  11.918  11.086
  134PROX   H1342095  10.505  12.100  11.080
  134PROX    C242096  10.697  12.004  11.017
  134PROX   H2142097  10.765  12.084  11.055
  134PROX    C342098  10.654  12.027  10.869
  134PROX   H3142099  10.573  12.102  10.862
  134PROX   H3242100  10.743  12.047  10.805
  134PROX   H3342101  10.605  11.935  10.832
  135PROX    O142102  10.771  11.883  11.030
  135PROX    C142103  10.912  11.906  11.031
  135PROX   H1142104  10.941  11.978  10.950
  135PROX   H1342105  10.944  11.953  11.126
  135PROX    C242106  10.986  11.770  11.018
  135PROX   H2142107  10.936  11.695  11.083
  135PROX    C342108  11.135  11.775  11.044
  135PROX   H3142109  11.166  11.868  11.096
  135PROX   H3242110  11.171  11.686  11.100
  135PROX   H3342111  11.186  11.781  10.945
  136PROX    O142112  10.962  11.721  10.896
  136PROX    C142113  11.004  11.583  10.880
  136PROX   H1142114  11.109  11.562  10.909
  136PROX   H1342115  10.940  11.528  10.952
  136PROX    C242116  10.974  11.518  10.742
  136PROX   H2142117  10.870  11.547  10.715
  136PROX    C342118  10.988  11.364  10.745
  136PROX   H3142119  10.971  11.316  10.646
  136PROX   H3242120  11.093  11.341  10.773
  136PROX   H3342121  10.925  11.314  10.821
  137PROX    O142122  11.066  11.563  10.646
  137PROX    C142123  11.071  11.704  10.619
  137PROX   H1142124  11.108  11.764  10.705
  137PROX   H1342125  11.144  11.731  10.540
  137PROX    C242126  10.941  11.752  10.555
  137PROX   H2142127  10.867  11.758  10.638
  137PROX    C342128  10.898  11.661  10.443
  137PROX   H3142129  10.875  11.554  10.462
  137PROX   H3242130  10.813  11.705  10.386
  137PROX   H3342131  10.989  11.666  10.379
  138PROX    O142132  10.957  11.889  10.504
  138PROX    C142133  10.959  11.986  10.604
  138PROX   H1142134  10.905  11.959  10.697
  138PROX   H1342135  11.068  11.990  10.622
  138PROX    C242136  10.924  12.122  10.551
  138PROX   H2142137  10.946  12.132  10.443
  138PROX    C342138  11.007  12.234  10.615
  138PROX   H3142139  11.005  12.216  10.725
  138PROX   H3242140  11.115  12.232  10.589
  138PROX   H3342141  10.961  12.333  10.596
  139PROX    O142142  10.787  12.142  10.572
  139PROX    C142143  10.723  12.215  10.469
  139PROX   H1142144  10.762  12.318  10.482
  139PROX   H1342145  10.756  12.179  10.369
  139PROX    C242146  10.575  12.202  10.478
  139PROX   H2142147  10.544  12.228  10.582
  139PROX    C342148  10.549  12.049  10.464
  139PROX   H3142149  10.575  12.004  10.562
  139PROX   H3242150  10.439  12.031  10.462
  139PROX   H3342151  10.605  12.009  10.377
  140PROX    O142152  10.512  12.287  10.382
  140PROX    C142153  10.384  12.333  10.413
  140PROX   H1142154  10.313  12.248  10.408
  140PROX   H1342155  10.384  12.375  10.516
  140PROX    C242156  10.343  12.438  10.306
  140PROX   H2142157  10.357  12.397  10.203
  140PROX    C342158  10.426  12.561  10.319
  140PROX   H3142159  10.377  12.654  10.285
  140PROX   H3242160  10.453  12.579  10.425
  140PROX   H3342161  10.520  12.550  10.260
  141PROX    O142162  10.206  12.470  10.323
  141PROX    C142163  10.115  12.378  10.269
  141PROX   H1142164  10.087  12.419  10.169
  141PROX   H1342165  10.166  12.282  10.246
  141PROX    C242166  10.002  12.357  10.358
  141PROX   H2142167   9.948  12.452  10.380
  141PROX    C342168  10.058  12.313  10.496
  141PROX   H3142169  10.147  12.373  10.526
  141PROX   H3242170   9.981  12.315  10.575
  141PROX   H3342171  10.094  12.208  10.495
  142PROX    O142172   9.917  12.256  10.310
  142PROX    C142173   9.794  12.240  10.382
  142PROX   H1142174   9.818  12.188  10.477
  142PROX   H1342175   9.748  12.340  10.396
  142PROX    C242176   9.691  12.145  10.314
  142PROX   H2142177   9.740  12.048  10.290
  142PROX    C342178   9.625  12.212  10.189
  142PROX   H3142179   9.575  12.306  10.223
  142PROX   H3242180   9.703  12.244  10.117
  142PROX   H3342181   9.543  12.145  10.155
  143PROX    O142182   9.583  12.132  10.401
  143PROX    C142183   9.590  12.013  10.489
  143PROX   H1142184   9.688  12.013  10.542
  143PROX   H1342185   9.517  12.027  10.572
  143PROX    C242186   9.564  11.882  10.420
  143PROX   H2142187   9.649  11.865  10.350
  143PROX    C342188   9.423  11.882  10.347
  143PROX   H3142189   9.340  11.908  10.416
  143PROX   H3242190   9.426  11.963  10.270
  143PROX   H3342191   9.409  11.789  10.288
  144PROX    O142192   9.553  11.779  10.522
  144PROX    C142193   9.612  11.648  10.495
  144PROX   H1142194   9.622  11.638  10.385
  144PROX   H1342195   9.716  11.650  10.535
  144PROX    C242196   9.536  11.526  10.548
  144PROX   H2142197   9.434  11.522  10.503
  144PROX    C342198   9.535  11.531  10.698
  144PROX   H3142199   9.499  11.633  10.724
  144PROX   H3242200   9.463  11.464  10.752
  144PROX   H3342201   9.634  11.515  10.746
  145PROX    O142202   9.613  11.410  10.518
  145PROX    C142203   9.559  11.324  10.418
  145PROX   H1142204   9.607  11.226  10.439
  145PROX   H1342205   9.455  11.292  10.436
  145PROX    C242206   9.578  11.377  10.273
  145PROX   H2142207   9.657  11.452  10.251
  145PROX    C342208   9.451  11.426  10.221
  145PROX   H3142209   9.367  11.355  10.234
  145PROX   H3242210   9.417  11.518  10.272
  145PROX   H3342211   9.465  11.451  10.114
  146PROX    O142212   9.601  11.268  10.193
  146PROX    C142213   9.743  11.244  10.179
  146PROX   H1142214   9.798  11.278  10.270
  146PROX   H1342215   9.757  11.134  10.183
  146PROX    C242216   9.809  11.300  10.049
  146PROX   H2142217   9.835  11.408  10.055
  146PROX    C342218   9.718  11.293   9.924
  146PROX   H3142219   9.618  11.341   9.930
  146PROX   H3242220   9.765  11.345   9.838
  146PROX   H3342221   9.712  11.188   9.889
  147PROX    O142222   9.930  11.234  10.019
  147PROX    C142223  10.022  11.220  10.133
  147PROX   H1142224  10.033  11.316  10.187
  147PROX   H1342225   9.990  11.143  10.206
  147PROX    C242226  10.166  11.197  10.082
  147PROX   H2142227  10.163  11.108  10.017
  147PROX    C342228  10.254  11.176  10.200
  147PROX   H3142229  10.227  11.078  10.246
  147PROX   H3242230  10.360  11.180  10.168
  147PROX   H3342231  10.237  11.253  10.279
  148PROX    O142232  10.208  11.311  10.002
  148PROX    C142233  10.179  11.293   9.864
  148PROX   H1142234  10.247  11.221   9.814
  148PROX   H1342235  10.078  11.246   9.860
  148PROX    C242236  10.166  11.431   9.791
  148PROX   H2142237  10.259  11.491   9.800
  148PROX    C342238  10.054  11.519   9.859
  148PROX   H3142239   9.955  11.470   9.851
  148PROX   H3242240  10.076  11.534   9.967
  148PROX   H3342241  10.057  11.618   9.808
  149PROX    O142242  10.133  11.399   9.658
  149PROX    C142243  10.241  11.349   9.582
  149PROX   H1142244  10.322  11.313   9.648
  149PROX   H1342245  10.213  11.266   9.514
  149PROX    C242246  10.310  11.460   9.491
  149PROX   H2142247  10.240  11.517   9.426
  149PROX    C342248  10.403  11.390   9.392
  149PROX   H3142249  10.465  11.315   9.445
  149PROX   H3242250  10.353  11.328   9.315
  149PROX   H3342251  10.468  11.461   9.337
  150PROX    O142252  10.393  11.539   9.568
  150PROX    C142253  10.407  11.680   9.525
  150PROX   H1142254  10.456  11.673   9.426
  150PROX   H1342255  10.309  11.732   9.512
  150PROX    C242256  10.493  11.761   9.634
  150PROX   H2142257  10.574  11.694   9.672
  150PROX    C342258  10.399  11.791   9.761
  150PROX   H3142259  10.307  11.844   9.728
  150PROX   H3242260  10.372  11.699   9.816
  150PROX   H3342261  10.457  11.862   9.823
  151PROX    O142262  10.562  11.879   9.571
  151PROX    C142263  10.484  11.956   9.482
  151PROX   H1142264  10.455  11.890   9.397
  151PROX   H1342265  10.394  11.999   9.532
  151PROX    C242266  10.560  12.086   9.444
  151PROX   H2142267  10.620  12.123   9.529
  151PROX    C342268  10.466  12.202   9.403
  151PROX   H3142269  10.419  12.170   9.308
  151PROX   H3242270  10.406  12.225   9.494
  151PROX   H3342271  10.530  12.287   9.370
  152PROX    O142272  10.653  12.063   9.336
  152PROX    C142273  10.783  12.030   9.380
  152PROX   H1142274  10.834  12.124   9.409
  152PROX   H1342275  10.773  11.963   9.468
  152PROX    C242276  10.876  11.955   9.279
  152PROX   H2142277  10.887  12.027   9.195
  152PROX    C342278  10.789  11.831   9.228
  152PROX   H3142279  10.805  11.758   9.310
  152PROX   H3242280  10.683  11.861   9.215
  152PROX   H3342281  10.833  11.801   9.130
  153PROX    O142282  10.999  11.918   9.339
  153PROX    C142283  11.069  11.836   9.250
  153PROX   H1142284  11.035  11.731   9.243
  153PROX   H1342285  11.063  11.883   9.149
  153PROX    C242286  11.222  11.834   9.292
  153PROX   H2142287  11.232  11.810   9.400
  153PROX    C342288  11.293  11.973   9.254
  153PROX   H3142289  11.243  12.050   9.318
  153PROX   H3242290  11.398  11.967   9.289
  153PROX   H3342291  11.280  11.994   9.146
  154PROX    O142292  11.286  11.724   9.227
  154PROX    C142293  11.422  11.701   9.256
  154PROX   H1142294  11.472  11.787   9.206
  154PROX   H1342295  11.443  11.729   9.362
  154PROX    C242296  11.466  11.559   9.216
  154PROX   H2142297  11.573  11.556   9.248
  154PROX    C342298  11.455  11.547   9.064
  154PROX   H3142299  11.531  11.611   9.015
  154PROX   H3242300  11.479  11.441   9.039
  154PROX   H3342301  11.372  11.597   9.011
  155PROX    O142302  11.385  11.454   9.278
  155PROX    C142303  11.357  11.471   9.416
  155PROX   H1142304  11.458  11.465   9.462
  155PROX   H1342305  11.307  11.571   9.425
  155PROX    C242306  11.256  11.367   9.463
  155PROX   H2142307  11.276  11.263   9.428
  155PROX    C342308  11.108  11.396   9.414
  155PROX   H3142309  11.104  11.389   9.304
  155PROX   H3242310  11.042  11.317   9.454
  155PROX   H3342311  11.091  11.495   9.464
  156PROX    O142312  11.251  11.374   9.607
  156PROX    C142313  11.178  11.270   9.674
  156PROX   H1142314  11.076  11.302   9.704
  156PROX   H1342315  11.167  11.174   9.619
  156PROX    C242316  11.248  11.224   9.808
  156PROX   H2142317  11.345  11.178   9.780
  156PROX    C342318  11.172  11.112   9.892
  156PROX   H3142319  11.231  11.059   9.969
  156PROX   H3242320  11.069  11.137   9.924
  156PROX   H3342321  11.149  11.029   9.821
  157PROX    O142322  11.288  11.340   9.881
  157PROX    C142323  11.214  11.381   9.995
  157PROX   H1142324  11.107  11.379   9.965
  157PROX   H1342325  11.232  11.305  10.074
  157PROX    C242326  11.251  11.526  10.042
  157PROX   H2142327  11.359  11.524  10.070
  157PROX    C342328  11.185  11.584  10.163
  157PROX   H3142329  11.077  11.609  10.147
  157PROX   H3242330  11.186  11.502  10.238
  157PROX   H3342331  11.235  11.673  10.207
  158PROX    O142332  11.236  11.614   9.931
  158PROX    C142333  11.098  11.659   9.906
  158PROX   H1142334  11.018  11.594   9.950
  158PROX   H1342335  11.087  11.761   9.947
  158PROX    C242336  11.063  11.680   9.756
  158PROX   H2142337  11.075  11.583   9.705
  158PROX    C342338  11.151  11.790   9.691
  158PROX   H3142339  11.120  11.802   9.585
  158PROX   H3242340  11.136  11.878   9.756
  158PROX   H3342341  11.257  11.757   9.692
  159PROX    O142342  10.925  11.721   9.751
  159PROX    C142343  10.862  11.683   9.628
  159PROX   H1142344  10.766  11.739   9.635
  159PROX   H1342345  10.920  11.711   9.538
  159PROX    C242346  10.827  11.533   9.618
  159PROX   H2142347  10.921  11.480   9.645
  159PROX    C342348  10.788  11.499   9.473
  159PROX   H3142349  10.692  11.549   9.446
  159PROX   H3242350  10.871  11.530   9.407
  159PROX   H3342351  10.780  11.388   9.469
  160PROX    O142352  10.721  11.501   9.697
  160PROX    C142353  10.737  11.511   9.833
  160PROX   H1142354  10.845  11.513   9.860
  160PROX   H1342355  10.703  11.610   9.871
  160PROX    C242356  10.664  11.399   9.906
  160PROX   H2142357  10.671  11.309   9.841
  160PROX    C342358  10.513  11.431   9.916
  160PROX   H3142359  10.454  11.340   9.940
  160PROX   H3242360  10.482  11.515   9.982
  160PROX   H3342361  10.474  11.453   9.815
  161PROX    O142362  10.724  11.380  10.028
  161PROX    C142363  10.687  11.258  10.089
  161PROX   H1142364  10.579  11.251  10.115
  161PROX   H1342365  10.711  11.172  10.023
  161PROX    C242366  10.771  11.248  10.218
  161PROX   H2142367  10.762  11.344  10.274
  161PROX    C342368  10.920  11.221  10.196
  161PROX   H3142369  10.921  11.142  10.118
  161PROX   H3242370  10.973  11.308  10.150
  161PROX   H3342371  10.977  11.195  10.288
  162PROX    O142372  10.728  11.146  10.306
  162PROX    C142373  10.616  11.175  10.383
  162PROX   H1142374  10.532  11.217  10.323
  162PROX   H1342375  10.580  11.084  10.436
  162PROX    C242376  10.656  11.268  10.503
  162PROX   H2142377  10.726  11.349  10.474
  162PROX    C342378  10.714  11.177  10.610
  162PROX   H3142379  10.730  11.228  10.708
  162PROX   H3242380  10.656  11.082  10.612
  162PROX   H3342381  10.812  11.148  10.567
  163PROX    O142382  10.542  11.329  10.554
  163PROX    C142383  10.570  11.436  10.646
  163PROX   H1142384  10.477  11.439  10.706
  163PROX   H1342385  10.664  11.424  10.704
  163PROX    C242386  10.576  11.574  10.579
  163PROX   H2142387  10.654  11.570  10.499
  163PROX    C342388  10.597  11.693  10.674
  163PROX   H3142389  10.511  11.697  10.744
  163PROX   H3242390  10.683  11.679  10.743
  163PROX   H3342391  10.602  11.794  10.627
  164PROX    O142392  10.451  11.584  10.512
  164PROX    C142393  10.461  11.681  10.410
  164PROX   H1142394  10.439  11.778  10.459
  164PROX   H1342395  10.556  11.679  10.352
  164PROX    C242396  10.345  11.651  10.312
  164PROX   H2142397  10.254  11.661  10.375
  164PROX    C342398  10.359  11.508  10.261
  164PROX   H3142399  10.263  11.478  10.213
  164PROX   H3242400  10.450  11.497  10.199
  164PROX   H3342401  10.378  11.448  10.353
  165PROX    O142402  10.347  11.756  10.209
  165PROX    C142403  10.247  11.740  10.106
  165PROX   H1142404  10.284  11.686  10.016
  165PROX   H1342405  10.163  11.679  10.145
  165PROX    C242406  10.186  11.879  10.064
  165PROX   H2142407  10.268  11.924  10.005
  165PROX    C342408  10.150  11.977  10.181
  165PROX   H3142409  10.105  12.075  10.151
  165PROX   H3242410  10.081  11.926  10.251
  165PROX   H3342411  10.238  12.017  10.235
  166ETHO    O142412  10.073  11.852   9.978
  166ETHO    C142413  10.058  11.935   9.865
  166ETHO   H1142414  10.140  11.917   9.792
  166ETHO   H1342415  10.067  12.042   9.894
  166ETHO    C242416   9.926  11.898   9.793
  166ETHO   H2142417   9.845  11.934   9.861
  166ETHO   H2342418   9.925  11.787   9.791
  167ETHO    O142419   9.918  11.954   9.660
  167ETHO    C142420   9.896  12.099   9.655
  167ETHO   H1142421   9.802  12.123   9.708
  167ETHO   H1342422   9.985  12.147   9.700
  167ETHO    C242423   9.891  12.151   9.507
  167ETHO   H2142424   9.857  12.254   9.531
  167ETHO   H2342425   9.810  12.110   9.444
  168ETHO    O142426  10.020  12.160   9.443
  168ETHO    C142427  10.008  12.227   9.315
  168ETHO   H1142428  10.102  12.275   9.281
  168ETHO   H1342429   9.931  12.306   9.323
  168ETHO    C242430   9.958  12.144   9.195
  168ETHO   H2142431   9.933  12.216   9.114
  168ETHO   H2342432   9.866  12.095   9.234
  169ETHO    O142433  10.059  12.045   9.159
  169ETHO    C142434   9.998  11.953   9.072
  169ETHO   H1142435   9.910  11.902   9.116
  169ETHO   H1342436   9.965  12.008   8.981
  169ETHO    C242437  10.074  11.830   9.028
  169ETHO   H2142438  10.169  11.862   8.980
  169ETHO   H2342439  10.014  11.779   8.949
  170ETHO    O142440  10.106  11.733   9.133
  170ETHO    C142441  10.159  11.609   9.082
  170ETHO   H1142442  10.220  11.554   9.157
  170ETHO   H1342443  10.231  11.625   8.999
  170ETHO    C242444  10.033  11.526   9.033
  170ETHO   H2142445  10.074  11.425   9.009
  170ETHO   H2342446  10.002  11.565   8.934
  171ETHO    O142447   9.940  11.512   9.131
  171ETHO    C142448   9.813  11.561   9.090
  171ETHO   H1142449   9.750  11.565   9.182
  171ETHO   H1342450   9.819  11.663   9.047
  171ETHO    C242451   9.751  11.465   8.985
  171ETHO   H2142452   9.641  11.481   8.995
  171ETHO   H2342453   9.776  11.362   9.018
  172ETHO    O142454   9.786  11.470   8.846
  172ETHO    C142455   9.713  11.368   8.767
  172ETHO   H1142456   9.602  11.371   8.764
  172ETHO   H1342457   9.731  11.272   8.819
  172ETHO    C242458   9.761  11.371   8.625
  172ETHO   H2142459   9.749  11.268   8.586
  172ETHO   H2342460   9.871  11.386   8.617
  173ETHO    O142461   9.684  11.459   8.542
  173ETHO    C142462   9.603  11.393   8.447
  173ETHO   H1142463   9.662  11.325   8.382
  173ETHO   H1342464   9.534  11.323   8.498
  173ETHO    C242465   9.522  11.486   8.364
  173ETHO   H2142466   9.456  11.544   8.432
  173ETHO   H2342467   9.597  11.550   8.311
  174ETHO    O142468   9.444  11.404   8.276
  174ETHO    C142469   9.344  11.475   8.210
  174ETHO   H1142470   9.262  11.496   8.282
  174ETHO   H1342471   9.397  11.566   8.173
  174ETHO    C242472   9.291  11.399   8.094
  174ETHO   H2142473   9.193  11.443   8.064
  174ETHO   H2342474   9.275  11.292   8.119
  175ETHO    O142475   9.379  11.399   7.984
  175ETHO    C142476   9.333  11.300   7.891
  175ETHO   H1142477   9.375  11.209   7.939
  175ETHO   H1342478   9.223  11.290   7.901
  175ETHO    C242479   9.371  11.306   7.746
  175ETHO   H2142480   9.476  11.339   7.736
  175ETHO   H2342481   9.301  11.376   7.695
  176ETHO    O142482   9.357  11.180   7.686
  176ETHO    C142483   9.397  11.181   7.547
  176ETHO   H1142484   9.344  11.266   7.500
  176ETHO   H1342485   9.506  11.197   7.541
  176ETHO    C242486   9.362  11.046   7.483
  176ETHO   H2142487   9.421  10.968   7.536
  176ETHO   H2342488   9.379  11.051   7.374
  177ETHO    O142489   9.219  11.009   7.489
  177ETHO    C142490   9.204  10.864   7.476
  177ETHO   H1142491   9.204  10.826   7.580
  177ETHO   H1342492   9.298  10.822   7.435
  177ETHO    C242493   9.076  10.823   7.404
  177ETHO   H2142494   9.000  10.872   7.468
  177ETHO   H2342495   9.060  10.713   7.401
  178ETHO    O142496   9.060  10.862   7.266
  178ETHO    C142497   8.932  10.828   7.216
  178ETHO   H1142498   8.848  10.860   7.282
  178ETHO   H1342499   8.912  10.889   7.125
  178ETHO    C242500   8.900  10.678   7.180
  178ETHO   H2142501   8.987  10.620   7.142
  178ETHO   H2342502   8.831  10.684   7.093
  179ETHO    O142503   8.829  10.614   7.288
  179ETHO    C142504   8.847  10.466   7.290
  179ETHO   H1142505   8.950  10.453   7.331
  179ETHO   H1342506   8.840  10.420   7.189
  179ETHO    C242507   8.743  10.402   7.375
  179ETHO   H2142508   8.664  10.345   7.321
  179ETHO   H2342509   8.699  10.474   7.447
  180ETHO    O142510   8.793  10.297   7.443
  180ETHO    C142511   8.719  10.255   7.552
  180ETHO   H1142512   8.713  10.340   7.624
  180ETHO   H1342513   8.617  10.243   7.511
  180ETHO    C242514   8.763  10.120   7.611
  180ETHO   H2142515   8.716  10.114   7.712
  180ETHO   H2342516   8.872  10.107   7.625
  181ETHO    O142517   8.729  10.010   7.523
  181ETHO    C142518   8.747   9.878   7.581
  181ETHO   H1142519   8.703   9.811   7.504
  181ETHO   H1342520   8.694   9.870   7.678
  181ETHO    C242521   8.897   9.830   7.593
  181ETHO   H2142522   8.949   9.872   7.681
  181ETHO   H2342523   8.955   9.857   7.502
  182ETHO    O142524   8.905   9.689   7.599
  182ETHO    C142525   9.043   9.645   7.582
  182ETHO   H1142526   9.087   9.674   7.484
  182ETHO   H1342527   9.091   9.695   7.669
  182ETHO    C242528   9.036   9.492   7.601
  182ETHO   H2142529   9.127   9.437   7.570
  182ETHO   H2342530   8.947   9.463   7.541
  183ETHO    O142531   9.001   9.459   7.734
  183ETHO    C142532   9.001   9.320   7.762
  183ETHO   H1142533   8.972   9.312   7.869
  183ETHO   H1342534   9.102   9.275   7.750
  183ETHO    C242535   8.907   9.238   7.669
  183ETHO   H2142536   8.935   9.236   7.561
  183ETHO   H2342537   8.806   9.281   7.687
  184ETHO    O142538   8.898   9.097   7.701
  184ETHO    C142539   8.802   9.073   7.803
  184ETHO   H1142540   8.819   9.146   7.886
  184ETHO   H1342541   8.696   9.082   7.771
  184ETHO    C242542   8.839   8.942   7.866
  184ETHO   H2142543   8.789   8.934   7.965
  184ETHO   H2342544   8.949   8.947   7.881
  185ETHO    O142545   8.807   8.833   7.783
  185ETHO    C142546   8.669   8.799   7.791
  185ETHO   H1142547   8.598   8.885   7.789
  185ETHO   H1342548   8.653   8.730   7.706
  185ETHO    C242549   8.650   8.711   7.917
  185ETHO   H2142550   8.743   8.656   7.945
  185ETHO   H2342551   8.579   8.629   7.893
  186ETHO    O142552   8.621   8.770   8.044
  186ETHO    C142553   8.536   8.694   8.123
  186ETHO   H1142554   8.457   8.657   8.054
  186ETHO   H1342555   8.590   8.602   8.153
  186ETHO    C242556   8.478   8.771   8.241
  186ETHO   H2142557   8.376   8.736   8.269
  186ETHO   H2342558   8.470   8.876   8.207
  187ETHO    O142559   8.567   8.759   8.356
  187ETHO    C142560   8.536   8.859   8.457
  187ETHO   H1142561   8.554   8.962   8.421
  187ETHO   H1342562   8.435   8.845   8.501
  187ETHO    C242563   8.627   8.838   8.579
  187ETHO   H2142564   8.618   8.920   8.653
  187ETHO   H2342565   8.727   8.838   8.530
  188ETHO    O142566   8.606   8.704   8.627
  188ETHO    C142567   8.730   8.642   8.669
  188ETHO   H1142568   8.790   8.705   8.738
  188ETHO   H1342569   8.786   8.622   8.576
  188ETHO    C242570   8.702   8.508   8.741
  188ETHO   H2142571   8.642   8.438   8.679
  188ETHO   H2342572   8.639   8.542   8.826
  189ETHO    O142573   8.812   8.444   8.802
  189ETHO    C142574   8.773   8.316   8.862
  189ETHO   H1142575   8.682   8.333   8.923
  189ETHO   H1342576   8.749   8.236   8.788
  189ETHO    C242577   8.883   8.262   8.957
  189ETHO   H2142578   8.977   8.232   8.905
  189ETHO   H2342579   8.864   8.165   9.006
  190ETHO    O142580   8.923   8.352   9.063
  190ETHO    C142581   9.015   8.291   9.153
  190ETHO   H1142582   9.086   8.231   9.092
  190ETHO   H1342583   8.961   8.217   9.216
  190ETHO    C242584   9.082   8.385   9.252
  190ETHO   H2142585   9.115   8.472   9.192
  190ETHO   H2342586   9.165   8.334   9.305
  191ETHO    O142587   8.986   8.428   9.353
  191ETHO    C142588   9.037   8.390   9.487
  191ETHO   H1142589   9.071   8.284   9.493
  191ETHO   H1342590   9.127   8.452   9.509
  191ETHO    C242591   8.934   8.420   9.599
  191ETHO   H2142592   8.903   8.527   9.596
  191ETHO   H2342593   8.994   8.394   9.689
  192ETHO    O142594   8.815   8.345   9.588
  192ETHO    C142595   8.843   8.210   9.619
  192ETHO   H1142596   8.912   8.209   9.706
  192ETHO   H1342597   8.881   8.155   9.531
  192ETHO    C242598   8.718   8.120   9.663
  192ETHO   H2142599   8.653   8.172   9.737
  192ETHO   H2342600   8.771   8.032   9.707
  193ETHO    O142601   8.641   8.070   9.551
  193ETHO    C142602   8.542   8.161   9.517
  193ETHO   H1142603   8.483   8.191   9.606
  193ETHO   H1342604   8.601   8.253   9.493
  193ETHO    C242605   8.451   8.134   9.395
  193ETHO   H2142606   8.505   8.079   9.315
  193ETHO   H2342607   8.416   8.235   9.365
  194ETHO    O142608   8.337   8.058   9.443
  194ETHO    C142609   8.266   7.994   9.344
  194ETHO   H1142610   8.182   7.940   9.395
  194ETHO   H1342611   8.334   7.920   9.298
  194ETHO    C242612   8.198   8.085   9.247
  194ETHO   H2142613   8.147   8.034   9.163
  194ETHO   H2342614   8.276   8.147   9.197
  195ETHO    O142615   8.095   8.162   9.317
  195ETHO    C142616   8.024   8.248   9.229
  195ETHO   H1142617   8.014   8.214   9.124
  195ETHO   H1342618   7.927   8.276   9.276
  195ETHO    C242619   8.111   8.382   9.219
  195ETHO   H2142620   8.051   8.450   9.154
  195ETHO   H2342621   8.207   8.348   9.175
  196ETHO    O142622   8.144   8.449   9.343
  196ETHO    C142623   8.255   8.532   9.322
  196ETHO   H1142624   8.352   8.480   9.311
  196ETHO   H1342625   8.237   8.583   9.225
  196ETHO    C242626   8.255   8.631   9.436
  196ETHO   H2142627   8.157   8.678   9.460
  196ETHO   H2342628   8.323   8.712   9.405
  197ETHO    O142629   8.295   8.556   9.551
  197ETHO    C142630   8.269   8.617   9.675
  197ETHO   H1142631   8.292   8.725   9.690
  197ETHO   H1342632   8.160   8.610   9.694
  197ETHO    C242633   8.352   8.535   9.772
  197ETHO   H2142634   8.336   8.429   9.742
  197ETHO   H2342635   8.311   8.546   9.875
  198ETHO    O142636   8.486   8.580   9.776
  198ETHO    C142637   8.570   8.488   9.849
  198ETHO   H1142638   8.524   8.472   9.949
  198ETHO   H1342639   8.596   8.393   9.797
  198ETHO    C242640   8.702   8.563   9.866
  198ETHO   H2142641   8.676   8.664   9.906
  198ETHO   H2342642   8.751   8.569   9.767
  199ETHO    O142643   8.781   8.504   9.965
  199ETHO    C142644   8.881   8.589  10.018
  199ETHO   H1142645   8.826   8.664  10.077
  199ETHO   H1342646   8.928   8.653   9.940
  199ETHO    C242647   8.988   8.521  10.106
  199ETHO   H2142648   8.957   8.486  10.207
  199ETHO   H2342649   9.043   8.610  10.145
  200ETHO    O142650   9.078   8.428  10.047
  200ETHO    C142651   9.017   8.306  10.002
  200ETHO   H1142652   8.906   8.313   9.991
  200ETHO   H1342653   9.069   8.274   9.909
  200ETHO    C242654   9.065   8.191  10.100
  200ETHO   H2142655   9.169   8.211  10.134
  200ETHO   H2342656   9.053   8.093  10.049
  201ETHO    O142657   8.996   8.192  10.224
  201ETHO    C142658   9.031   8.081  10.300
  201ETHO   H1142659   9.139   8.056  10.293
  201ETHO   H1342660   8.988   7.982  10.277
  201ETHO    C242661   8.993   8.122  10.445
  201ETHO   H2142662   8.986   8.018  10.485
  201ETHO   H2342663   8.888   8.160  10.444
  202ETHO    O142664   9.095   8.196  10.508
  202ETHO    C142665   9.055   8.233  10.639
  202ETHO   H1142666   8.955   8.281  10.631
  202ETHO   H1342667   9.047   8.151  10.714
  202ETHO    C242668   9.144   8.346  10.704
  202ETHO   H2142669   9.099   8.394  10.794
  202ETHO   H2342670   9.157   8.423  10.626
  203ETHO    O142671   9.276   8.303  10.747
  203ETHO    C142672   9.367   8.407  10.728
  203ETHO   H1142673   9.360   8.448  10.625
  203ETHO   H1342674   9.473   8.375  10.741
  203ETHO    C242675   9.350   8.523  10.834
  203ETHO   H2142676   9.340   8.475  10.934
  203ETHO   H2342677   9.256   8.578  10.811
  204ETHO    O142678   9.448   8.625  10.822
  204ETHO    C142679   9.421   8.719  10.925
  204ETHO   H1142680   9.329   8.773  10.895
  204ETHO   H1342681   9.404   8.665  11.021
  204ETHO    C242682   9.539   8.815  10.923
  204ETHO   H2142683   9.519   8.918  10.959
  204ETHO   H2342684   9.571   8.834  10.819
  205ETHO    O142685   9.642   8.752  10.992
  205ETHO    C142686   9.772   8.805  10.957
  205ETHO   H1142687   9.769   8.882  10.877
  205ETHO   H1342688   9.839   8.720  10.931
  205ETHO    C242689   9.844   8.901  11.057
  205ETHO   H2142690   9.947   8.914  11.017
  205ETHO   H2342691   9.852   8.842  11.151
  206ETHO    O142692   9.791   9.029  11.075
  206ETHO    C142693   9.863   9.100  11.178
  206ETHO   H1142694   9.840   9.041  11.270
  206ETHO   H1342695   9.968   9.087  11.144
  206ETHO    C242696   9.820   9.253  11.183
  206ETHO   H2142697   9.892   9.301  11.253
  206ETHO   H2342698   9.832   9.310  11.088
  207ETHO    O142699   9.684   9.260  11.231
  207ETHO    C142700   9.639   9.401  11.225
  207ETHO   H1142701   9.660   9.450  11.128
  207ETHO   H1342702   9.692   9.455  11.307
  207ETHO    C242703   9.495   9.423  11.259
  207ETHO   H2142704   9.455   9.364  11.344
  207ETHO   H2342705   9.429   9.410  11.171
  208ETHO    O142706   9.478   9.561  11.296
  208ETHO    C142707   9.341   9.586  11.330
  208ETHO   H1142708   9.284   9.575  11.235
  208ETHO   H1342709   9.301   9.507  11.397
  208ETHO    C242710   9.307   9.731  11.377
  208ETHO   H2142711   9.201   9.740  11.407
  208ETHO   H2342712   9.324   9.801  11.292
  209ETHO    O142713   9.382   9.762  11.496
  209ETHO    C142714   9.517   9.815  11.475
  209ETHO   H1142715   9.579   9.739  11.422
  209ETHO   H1342716   9.557   9.832  11.577
  209ETHO    C242717   9.512   9.962  11.423
  209ETHO   H2142718   9.617   9.998  11.438
  209ETHO   H2342719   9.441  10.023  11.482
  210ETHO    O142720   9.483   9.973  11.283
  210ETHO    C142721   9.501  10.107  11.242
  210ETHO   H1142722   9.437  10.169  11.309
  210ETHO   H1342723   9.608  10.138  11.242
  210ETHO    C242724   9.460  10.129  11.092
  210ETHO   H2142725   9.445  10.237  11.071
  210ETHO   H2342726   9.366  10.076  11.065
  211ETHO    O142727   9.549  10.079  10.993
  211ETHO    C142728   9.502  10.084  10.861
  211ETHO   H1142729   9.570  10.028  10.794
  211ETHO   H1342730   9.398  10.045  10.854
  211ETHO    C242731   9.504  10.218  10.794
  211ETHO   H2142732   9.477  10.199  10.688
  211ETHO   H2342733   9.603  10.267  10.780
  212ETHO    O142734   9.416  10.320  10.844
  212ETHO    C142735   9.446  10.445  10.776
  212ETHO   H1142736   9.519  10.506  10.833
  212ETHO   H1342737   9.501  10.424  10.682
  212ETHO    C242738   9.324  10.538  10.747
  212ETHO   H2142739   9.261  10.496  10.666
  212ETHO   H2342740   9.359  10.629  10.693
  213ETHO    O142741   9.246  10.553  10.865
  213ETHO    C142742   9.154  10.667  10.859
  213ETHO   H1142743   9.115  10.667  10.755
  213ETHO   H1342744   9.071  10.652  10.931
  213ETHO    C242745   9.208  10.807  10.886
  213ETHO   H2142746   9.281  10.788  10.968
  213ETHO   H2342747   9.129  10.882  10.910
  214ETHO    O142748   9.284  10.854  10.776
  214ETHO    C142749   9.368  10.954  10.812
  214ETHO   H1142750   9.448  10.908  10.874
  214ETHO   H1342751   9.318  11.039  10.864
  214ETHO    C242752   9.441  11.003  10.687
  214ETHO   H2142753   9.503  11.093  10.707
  214ETHO   H2342754   9.367  11.029  10.608
  215ETHO    O142755   9.523  10.907  10.629
  215ETHO    C142756   9.535  10.918  10.484
  215ETHO   H1142757   9.444  10.868  10.444
  215ETHO   H1342758   9.520  11.026  10.467
  215ETHO    C242759   9.665  10.876  10.412
  215ETHO   H2142760   9.650  10.893  10.303
  215ETHO   H2342761   9.668  10.765  10.409
  216ETHO    O142762   9.776  10.930  10.481
  216ETHO    C142763   9.892  10.899  10.408
  216ETHO   H1142764   9.896  10.933  10.302
  216ETHO   H1342765   9.887  10.788  10.408
  216ETHO    C242766  10.016  10.959  10.474
  216ETHO   H2142767  10.100  10.895  10.439
  216ETHO   H2342768  10.012  10.934  10.582
  217ETHO    O142769  10.034  11.092  10.455
  217ETHO    C142770   9.938  11.174  10.530
  217ETHO   H1142771   9.837  11.160  10.486
  217ETHO   H1342772   9.918  11.131  10.630
  217ETHO    C242773   9.974  11.320  10.525
  217ETHO   H2142774  10.084  11.323  10.540
  217ETHO   H2342775   9.910  11.370  10.601
  218ETHO    O142776   9.943  11.396  10.406
  218ETHO    C142777   9.973  11.536  10.419
  218ETHO   H1142778  10.080  11.542  10.447
  218ETHO   H1342779   9.914  11.584  10.500
  218ETHO    C242780   9.956  11.613  10.284
  218ETHO   H2142781  10.002  11.558  10.199
  218ETHO   H2342782  10.011  11.710  10.287
  219ETHO    O142783   9.820  11.653  10.258
  219ETHO    C142784   9.803  11.702  10.126
  219ETHO   H1142785   9.880  11.781  10.115
  219ETHO   H1342786   9.843  11.623  10.058
  219ETHO    C242787   9.660  11.749  10.095
  219ETHO   H2142788   9.629  11.842  10.147
  219ETHO   H2342789   9.582  11.676  10.125
  220ETHO    O142790   9.633  11.767   9.958
  220ETHO    C142791   9.611  11.647   9.885
  220ETHO   H1142792   9.532  11.589   9.937
  220ETHO   H1342793   9.713  11.603   9.880
  220ETHO    C242794   9.564  11.657   9.739
  220ETHO   H2142795   9.631  11.725   9.683
  220ETHO   H2342796   9.461  11.701   9.741
  221ETHO    O142797   9.547  11.525   9.681
  221ETHO    C142798   9.472  11.522   9.558
  221ETHO   H1142799   9.363  11.529   9.578
  221ETHO   H1342800   9.507  11.604   9.493
  221ETHO    C242801   9.501  11.397   9.476
  221ETHO   H2142802   9.487  11.307   9.539
  221ETHO   H2342803   9.609  11.410   9.450
  222ETHO    O142804   9.415  11.401   9.361
  222ETHO    C142805   9.452  11.299   9.265
  222ETHO   H1142806   9.558  11.272   9.286
  222ETHO   H1342807   9.397  11.202   9.270
  222ETHO    C242808   9.411  11.344   9.121
  222ETHO   H2142809   9.445  11.269   9.046
  222ETHO   H2342810   9.450  11.444   9.094
  223ETHO    O142811   9.274  11.342   9.108
  223ETHO    C142812   9.232  11.425   9.000
  223ETHO   H1142813   9.245  11.532   9.023
  223ETHO   H1342814   9.292  11.400   8.909
  223ETHO    C242815   9.085  11.400   8.969
  223ETHO   H2142816   9.061  11.471   8.886
  223ETHO   H2342817   9.031  11.437   9.058
  224ETHO    O142818   9.054  11.262   8.939
  224ETHO    C142819   8.928  11.250   8.873
  224ETHO   H1142820   8.848  11.271   8.947
  224ETHO   H1342821   8.927  11.323   8.790
  224ETHO    C242822   8.902  11.111   8.814
  224ETHO   H2142823   8.792  11.100   8.801
  224ETHO   H2342824   8.932  11.031   8.885
  225ETHO    O142825   8.947  11.076   8.684
  225ETHO    C142826   8.876  11.148   8.581
  225ETHO   H1142827   8.892  11.257   8.595
  225ETHO   H1342828   8.769  11.128   8.607
  225ETHO    C242829   8.905  11.097   8.445
  225ETHO   H2142830   8.808  11.090   8.390
  225ETHO   H2342831   8.930  10.990   8.459
  226ETHO    O142832   9.000  11.178   8.371
  226ETHO    C142833   9.035  11.120   8.243
  226ETHO   H1142834   9.145  11.116   8.262
  226ETHO   H1342835   8.999  11.016   8.232
  226ETHO    C242836   8.990  11.201   8.134
  226ETHO   H2142837   8.986  11.312   8.128
  226ETHO   H2342838   8.882  11.182   8.116
  227ETHO    O142839   9.065  11.164   8.013
  227ETHO    C142840   8.998  11.066   7.937
  227ETHO   H1142841   8.937  11.128   7.869
  227ETHO   H1342842   8.942  10.996   8.003
  227ETHO    C242843   9.079  10.981   7.838
  227ETHO   H2142844   9.156  10.914   7.882
  227ETHO   H2342845   9.146  11.056   7.791
  228ETHO    O142846   9.017  10.919   7.734
  228ETHO    C142847   8.962  10.795   7.777
  228ETHO   H1142848   9.042  10.719   7.792
  228ETHO   H1342849   8.895  10.813   7.863
  228ETHO    C242850   8.855  10.747   7.680
  228ETHO   H2142851   8.829  10.648   7.722
  228ETHO   H2342852   8.895  10.733   7.577
  229ETHO    O142853   8.730  10.818   7.670
  229ETHO    C142854   8.630  10.740   7.602
  229ETHO   H1142855   8.614  10.644   7.654
  229ETHO   H1342856   8.662  10.723   7.497
  229ETHO    C242857   8.499  10.820   7.607
  229ETHO   H2142858   8.498  10.886   7.696
  229ETHO   H2342859   8.417  10.746   7.617
  230ETHO    O142860   8.473  10.895   7.489
  230ETHO    C142861   8.367  10.982   7.493
  230ETHO   H1142862   8.279  10.923   7.527
  230ETHO   H1342863   8.390  11.062   7.567
  230ETHO    C242864   8.343  11.059   7.371
  230ETHO   H2142865   8.444  11.100   7.348
  230ETHO   H2342866   8.274  11.146   7.369
  231ETHO    O142867   8.297  10.965   7.281
  231ETHO    C142868   8.274  11.013   7.154
  231ETHO   H1142869   8.364  11.073   7.127
  231ETHO   H1342870   8.184  11.077   7.143
  231ETHO    C242871   8.253  10.892   7.058
  231ETHO   H2142872   8.329  10.813   7.076
  231ETHO   H2342873   8.273  10.923   6.954
  232ETHO    O142874   8.124  10.845   7.066
  232ETHO    C142875   8.106  10.751   6.961
  232ETHO   H1142876   8.112  10.804   6.863
  232ETHO   H1342877   8.186  10.675   6.950
  232ETHO    C242878   7.969  10.672   6.981
  232ETHO   H2142879   7.955  10.658   7.090
  232ETHO   H2342880   7.978  10.566   6.949
  233ETHO    O142881   7.854  10.743   6.923
  233ETHO    C142882   7.791  10.664   6.816
  233ETHO   H1142883   7.863  10.597   6.766
  233ETHO   H1342884   7.715  10.596   6.860
  233ETHO    C242885   7.712  10.753   6.718
  233ETHO   H2142886   7.639  10.821   6.768
  233ETHO   H2342887   7.657  10.676   6.660
  234ETHO    O142888   7.802  10.825   6.645
  234ETHO    C142889   7.737  10.916   6.556
  234ETHO   H1142890   7.662  10.869   6.488
  234ETHO   H1342891   7.677  10.990   6.613
  234ETHO    C242892   7.844  10.993   6.473
  234ETHO   H2142893   7.939  10.997   6.530
  234ETHO   H2342894   7.810  11.098   6.460
  235ETHO    O142895   7.851  10.918   6.347
  235ETHO    C142896   7.959  10.964   6.267
  235ETHO   H1142897   7.956  11.073   6.287
  235ETHO   H1342898   8.055  10.923   6.303
  235ETHO    C242899   7.943  10.930   6.115
  235ETHO   H2142900   7.997  11.007   6.057
  235ETHO   H2342901   7.835  10.942   6.090
  236ETHO    O142902   7.992  10.799   6.090
  236ETHO    C142903   7.950  10.761   5.959
  236ETHO   H1142904   7.843  10.779   5.938
  236ETHO   H1342905   7.966  10.653   5.943
  236ETHO    C242906   8.039  10.812   5.843
  236ETHO   H2142907   8.011  10.750   5.755
  236ETHO   H2342908   8.146  10.800   5.870
  237ETHO    O142909   8.009  10.940   5.799
  237ETHO    C142910   8.094  10.981   5.697
  237ETHO   H1142911   8.192  11.002   5.744
  237ETHO   H1342912   8.112  10.901   5.622
  237ETHO    C242913   8.035  11.103   5.627
  237ETHO   H2142914   8.106  11.161   5.564
  237ETHO   H2342915   7.988  11.175   5.697
  238ETHO    O142916   7.938  11.056   5.530
  238ETHO    C142917   7.859  11.163   5.481
  238ETHO   H1142918   7.929  11.236   5.435
  238ETHO   H1342919   7.807  11.222   5.560
  238ETHO    C242920   7.750  11.112   5.380
  238ETHO   H2142921   7.673  11.190   5.361
  238ETHO   H2342922   7.690  11.025   5.415
  239ETHO    O142923   7.812  11.076   5.258
  239ETHO    C142924   7.722  11.089   5.145
  239ETHO   H1142925   7.680  11.190   5.125
  239ETHO   H1342926   7.784  11.065   5.056
  239ETHO    C242927   7.608  10.988   5.133
  239ETHO   H2142928   7.562  10.996   5.033
  239ETHO   H2342929   7.649  10.886   5.148
  240ETHO    O142930   7.500  10.996   5.216
  240ETHO    C142931   7.403  10.896   5.176
  240ETHO   H1142932   7.434  10.792   5.202
  240ETHO   H1342933   7.381  10.897   5.068
  240ETHO    C242934   7.264  10.916   5.232
  240ETHO   H2142935   7.257  10.949   5.338
  240ETHO   H2342936   7.215  10.817   5.225
  241ETHO    O142937   7.180  11.008   5.154
  241ETHO    C142938   7.050  11.026   5.205
  241ETHO   H1142939   7.002  10.926   5.201
  241ETHO   H1342940   7.077  11.056   5.308
  241ETHO    C242941   6.961  11.135   5.140
  241ETHO   H2142942   7.016  11.231   5.148
  241ETHO   H2342943   6.871  11.137   5.204
  242ETHO    O142944   6.925  11.101   5.002
  242ETHO    C142945   6.823  11.187   4.961
  242ETHO   H1142946   6.864  11.286   4.931
  242ETHO   H1342947   6.752  11.200   5.046
  242ETHO    C242948   6.746  11.145   4.837
  242ETHO   H2142949   6.668  11.224   4.828
  242ETHO   H2342950   6.703  11.047   4.867
  243ETHO    O142951   6.839  11.130   4.728
  243ETHO    C142952   6.773  11.073   4.614
  243ETHO   H1142953   6.844  11.024   4.543
  243ETHO   H1342954   6.691  11.004   4.643
  243ETHO    C242955   6.699  11.187   4.536
  243ETHO   H2142956   6.624  11.234   4.604
  243ETHO   H2342957   6.650  11.141   4.448
  244ETHO    O142958   6.784  11.285   4.486
  244ETHO    C142959   6.714  11.399   4.434
  244ETHO   H1142960   6.647  11.444   4.510
  244ETHO   H1342961   6.645  11.369   4.351
  244ETHO    C242962   6.817  11.499   4.367
  244ETHO   H2142963   6.904  11.520   4.432
  244ETHO   H2342964   6.770  11.600   4.366
  245ETHO    O142965   6.845  11.449   4.238
  245ETHO    C142966   6.851  11.559   4.148
  245ETHO   H1142967   6.749  11.596   4.125
  245ETHO   H1342968   6.917  11.639   4.187
  245ETHO    C242969   6.922  11.514   4.016
  245ETHO   H2142970   6.928  11.605   3.953
  245ETHO   H2342971   6.858  11.441   3.961
  246ETHO    O142972   7.058  11.460   4.024
  246ETHO    C142973   7.107  11.433   3.893
  246ETHO   H1142974   7.218  11.447   3.890
  246ETHO   H1342975   7.063  11.499   3.815
  246ETHO    C242976   7.073  11.294   3.845
  246ETHO   H2142977   7.083  11.279   3.735
  246ETHO   H2342978   6.965  11.275   3.860
  247ETHO    O142979   7.148  11.197   3.908
  247ETHO    C142980   7.245  11.130   3.829
  247ETHO   H1142981   7.198  11.056   3.761
  247ETHO   H1342982   7.293  11.209   3.767
  247ETHO    C242983   7.343  11.058   3.929
  247ETHO   H2142984   7.436  11.037   3.871
  247ETHO   H2342985   7.375  11.119   4.015
  248ETHO    O142986   7.288  10.938   3.972
  248ETHO    C142987   7.390  10.854   4.029
  248ETHO   H1142988   7.461  10.811   3.956
  248ETHO   H1342989   7.444  10.907   4.111
  248ETHO    C242990   7.325  10.740   4.097
  248ETHO   H2142991   7.287  10.690   4.005
  248ETHO   H2342992   7.235  10.770   4.154
  249ETHO    O142993   7.417  10.653   4.163
  249ETHO    C142994   7.363  10.611   4.291
  249ETHO   H1142995   7.352  10.700   4.357
  249ETHO   H1342996   7.260  10.569   4.285
  249ETHO    C242997   7.473  10.523   4.358
  249ETHO   H2142998   7.437  10.504   4.462
  249ETHO   H2342999   7.575  10.566   4.371
  250ETHO    O143000   7.472  10.392   4.298
  250ETHO    C143001   7.580  10.310   4.332
  250ETHO   H1143002   7.577  10.221   4.265
  250ETHO   H1343003   7.677  10.358   4.309
  250ETHO    C243004   7.577  10.266   4.486
  250ETHO   H2143005   7.642  10.176   4.495
  250ETHO   H2343006   7.471  10.241   4.507
  251ETHO    O143007   7.622  10.361   4.572
  251ETHO    C143008   7.605  10.324   4.707
  251ETHO   H1143009   7.665  10.232   4.723
  251ETHO   H1343010   7.503  10.288   4.731
  251ETHO    C243011   7.639  10.434   4.810
  251ETHO   H2143012   7.738  10.476   4.780
  251ETHO   H2343013   7.659  10.392   4.911
  252ETHO    O143014   7.541  10.537   4.831
  252ETHO    C143015   7.550  10.642   4.734
  252ETHO   H1143016   7.652  10.686   4.740
  252ETHO   H1343017   7.546  10.594   4.634
  252ETHO    C243018   7.442  10.752   4.742
  252ETHO   H2143019   7.494  10.847   4.720
  252ETHO   H2343020   7.391  10.773   4.839
  253ETHO    O143021   7.340  10.728   4.646
  253ETHO    C143022   7.246  10.837   4.626
  253ETHO   H1143023   7.301  10.929   4.598
  253ETHO   H1343024   7.205  10.857   4.728
  253ETHO    C243025   7.139  10.811   4.521
  253ETHO   H2143026   7.189  10.807   4.422
  253ETHO   H2343027   7.074  10.900   4.509
  254ETHO    O143028   7.069  10.692   4.551
  254ETHO    C143029   6.974  10.717   4.653
  254ETHO   H1143030   6.999  10.638   4.726
  254ETHO   H1343031   6.972  10.822   4.691
  254ETHO    C243032   6.834  10.689   4.588
  254ETHO   H2143033   6.760  10.687   4.671
  254ETHO   H2343034   6.842  10.584   4.551
  255ETHO    O143035   6.804  10.786   4.489
  255ETHO    C143036   6.672  10.765   4.442
  255ETHO   H1143037   6.642  10.860   4.393
  255ETHO   H1343038   6.605  10.738   4.527
  255ETHO    C243039   6.661  10.662   4.327
  255ETHO   H2143040   6.692  10.562   4.364
  255ETHO   H2343041   6.738  10.680   4.249
  256ETHO    O143042   6.538  10.662   4.267
  256ETHO    C143043   6.522  10.556   4.171
  256ETHO   H1143044   6.616  10.544   4.113
  256ETHO   H1343045   6.489  10.457   4.210
  256ETHO    C243046   6.419  10.592   4.070
  256ETHO   H2143047   6.328  10.630   4.120
  256ETHO   H2343048   6.391  10.511   3.999
  257ETHO    O143049   6.466  10.698   3.981
  257ETHO    C143050   6.369  10.728   3.878
  257ETHO   H1143051   6.269  10.711   3.924
  257ETHO   H1343052   6.366  10.658   3.792
  257ETHO    C243053   6.382  10.872   3.833
  257ETHO   H2143054   6.393  10.936   3.923
  257ETHO   H2343055   6.291  10.906   3.778
  258ETHO    O143056   6.496  10.888   3.746
  258ETHO    C143057   6.508  11.023   3.695
  258ETHO   H1143058   6.423  11.027   3.623
  258ETHO   H1343059   6.487  11.100   3.773
  258ETHO    C243060   6.638  11.040   3.621
  258ETHO   H2143061   6.716  11.010   3.693
  258ETHO   H2343062   6.657  11.149   3.610
  259ETHO    O143063   6.657  10.961   3.497
  259ETHO    C143064   6.566  11.003   3.391
  259ETHO   H1143065   6.466  10.980   3.432
  259ETHO   H1343066   6.573  11.112   3.374
  259ETHO    C243067   6.597  10.928   3.261
  259ETHO   H2143068   6.707  10.942   3.250
  259ETHO   H2343069   6.542  10.959   3.170
  260ETHO    O143070   6.583  10.783   3.275
  260ETHO    C143071   6.644  10.718   3.167
  260ETHO   H1143072   6.623  10.776   3.074
  260ETHO   H1343073   6.755  10.723   3.176
  260ETHO    C243074   6.602  10.568   3.158
  260ETHO   H2143075   6.626  10.530   3.259
  260ETHO   H2343076   6.669  10.525   3.081
  261ETHO    O143077   6.469  10.562   3.115
  261ETHO    C143078   6.403  10.450   3.166
  261ETHO   H1143079   6.465  10.359   3.156
  261ETHO   H1343080   6.394  10.451   3.277
  261ETHO    C243081   6.258  10.428   3.107
  261ETHO   H2143082   6.192  10.513   3.136
  261ETHO   H2343083   6.228  10.327   3.142
  262ETHO    O143084   6.271  10.427   2.963
  262ETHO    C143085   6.141  10.435   2.895
  262ETHO   H1143086   6.109  10.541   2.895
  262ETHO   H1343087   6.060  10.385   2.951
  262ETHO    C243088   6.138  10.386   2.743
  262ETHO   H2143089   6.036  10.343   2.737
  262ETHO   H2343090   6.216  10.308   2.733
  263ETHO    O143091   6.144  10.493   2.653
  263ETHO    C143092   6.272  10.552   2.646
  263ETHO   H1143093   6.346  10.469   2.638
  263ETHO   H1343094   6.280  10.612   2.739
  263ETHO    C243095   6.283  10.628   2.511
  263ETHO   H2143096   6.243  10.565   2.429
  263ETHO   H2343097   6.391  10.649   2.499
  264ETHO    O143098   6.213  10.750   2.522
  264ETHO    C143099   6.174  10.793   2.398
  264ETHO   H1143100   6.107  10.719   2.349
  264ETHO   H1343101   6.271  10.798   2.345
  264ETHO    C243102   6.124  10.931   2.388
  264ETHO   H2143103   6.142  10.988   2.294
  264ETHO   H2343104   6.183  10.993   2.458
  265ETHO    O143105   5.986  10.936   2.421
  265ETHO    C143106   5.936  11.073   2.435
  265ETHO   H1143107   6.003  11.125   2.507
  265ETHO   H1343108   5.939  11.118   2.334
  265ETHO    C243109   5.790  11.071   2.477
  265ETHO   H2143110   5.721  11.025   2.403
  265ETHO   H2343111   5.762  11.177   2.495
  265ETHO    OZ43112   5.764  10.993   2.595
  265ETHO   HZ143113   5.787  10.905   2.566
    1ETHO    O143114  21.170   9.157  13.687
    1ETHO   HO143115  21.088   9.107  13.680
    1ETHO    C143116  21.227   9.139  13.817
    1ETHO   H1143117  21.328   9.184  13.826
    1ETHO   H1343118  21.234   9.033  13.849
    1ETHO    C243119  21.153   9.207  13.931
    1ETHO   H2143120  21.142   9.315  13.908
    1ETHO   H2343121  21.221   9.190  14.018
    2ETHO    O143122  21.024   9.147  13.938
    2ETHO    C143123  20.923   9.231  13.875
    2ETHO   H1143124  20.928   9.341  13.891
    2ETHO   H1343125  20.936   9.211  13.766
    2ETHO    C243126  20.789   9.178  13.914
    2ETHO   H2143127  20.713   9.254  13.885
    2ETHO   H2343128  20.784   9.154  14.022
    3ETHO    O143129  20.762   9.058  13.836
    3ETHO    C143130  20.635   8.996  13.860
    3ETHO   H1143131  20.550   9.055  13.820
    3ETHO   H1343132  20.610   8.987  13.968
    3ETHO    C243133  20.643   8.864  13.780
    3ETHO   H2143134  20.697   8.879  13.684
    3ETHO   H2343135  20.541   8.823  13.762
    4ETHO    O143136  20.704   8.773  13.869
    4ETHO    C143137  20.700   8.640  13.821
    4ETHO   H1143138  20.595   8.609  13.803
    4ETHO   H1343139  20.745   8.651  13.719
    4ETHO    C243140  20.775   8.552  13.919
    4ETHO   H2143141  20.877   8.597  13.918
    4ETHO   H2343142  20.776   8.451  13.874
    5ETHO    O143143  20.722   8.538  14.049
    5ETHO    C143144  20.816   8.477  14.134
    5ETHO   H1143145  20.851   8.377  14.102
    5ETHO   H1343146  20.907   8.538  14.152
    5ETHO    C243147  20.752   8.469  14.277
    5ETHO   H2143148  20.830   8.432  14.348
    5ETHO   H2343149  20.665   8.399  14.274
    6ETHO    O143150  20.697   8.591  14.325
    6ETHO    C143151  20.798   8.649  14.407
    6ETHO   H1143152  20.831   8.592  14.496
    6ETHO   H1343153  20.886   8.652  14.339
    6ETHO    C243154  20.773   8.794  14.442
    6ETHO   H2143155  20.754   8.794  14.551
    6ETHO   H2343156  20.677   8.829  14.399
    7ETHO    O143157  20.883   8.869  14.408
    7ETHO    C143158  20.889   8.906  14.263
    7ETHO   H1143159  20.833   8.830  14.204
    7ETHO   H1343160  20.854   9.011  14.254
    7ETHO    C243161  21.038   8.910  14.215
    7ETHO   H2143162  21.080   8.976  14.294
    7ETHO   H2343163  21.042   8.954  14.113
    8ETHO    O143164  21.113   8.787  14.215
    8ETHO    C143165  21.246   8.816  14.179
    8ETHO   H1143166  21.244   8.866  14.080
    8ETHO   H1343167  21.296   8.718  14.169
    8ETHO    C243168  21.321   8.907  14.283
    8ETHO   H2143169  21.428   8.877  14.277
    8ETHO   H2343170  21.279   8.887  14.384
    9ETHO    O143171  21.317   9.049  14.248
    9ETHO    C143172  21.333   9.129  14.370
    9ETHO   H1143173  21.258   9.092  14.443
    9ETHO   H1343174  21.435   9.110  14.412
    9ETHO    C243175  21.318   9.277  14.337
    9ETHO   H2143176  21.344   9.300  14.232
    9ETHO   H2343177  21.393   9.337  14.393
   10ETHO    O143178  21.190   9.329  14.370
   10ETHO    C143179  21.102   9.313  14.262
   10ETHO   H1143180  21.113   9.212  14.217
   10ETHO   H1343181  21.124   9.389  14.184
   10ETHO    C243182  20.961   9.317  14.321
   10ETHO   H2143183  20.959   9.391  14.404
   10ETHO   H2343184  20.942   9.220  14.372
   11ETHO    O143185  20.864   9.346  14.216
   11ETHO    C143186  20.731   9.319  14.267
   11ETHO   H1143187  20.711   9.210  14.259
   11ETHO   H1343188  20.726   9.350  14.374
   11ETHO    C243189  20.631   9.406  14.192
   11ETHO   H2143190  20.639   9.370  14.087
   11ETHO   H2343191  20.537   9.368  14.237
   12ETHO    O143192  20.662   9.544  14.217
   12ETHO    C143193  20.572   9.627  14.151
   12ETHO   H1143194  20.550   9.583  14.051
   12ETHO   H1343195  20.636   9.715  14.131
   12ETHO    C243196  20.451   9.675  14.224
   12ETHO   H2143197  20.422   9.767  14.168
   12ETHO   H2343198  20.463   9.710  14.329
   13ETHO    O143199  20.347   9.574  14.219
   13ETHO    C143200  20.232   9.634  14.280
   13ETHO   H1143201  20.258   9.656  14.386
   13ETHO   H1343202  20.203   9.729  14.230
   13ETHO    C243203  20.121   9.527  14.279
   13ETHO   H2143204  20.090   9.521  14.172
   13ETHO   H2343205  20.042   9.577  14.339
   14ETHO    O143206  20.155   9.397  14.328
   14ETHO    C143207  20.042   9.314  14.349
   14ETHO   H1143208  19.969   9.324  14.265
   14ETHO   H1343209  19.993   9.349  14.442
   14ETHO    C243210  20.080   9.162  14.361
   14ETHO   H2143211  19.992   9.103  14.396
   14ETHO   H2343212  20.159   9.146  14.437
   15ETHO    O143213  20.116   9.101  14.234
   15ETHO    C143214  20.130   8.961  14.241
   15ETHO   H1143215  20.236   8.930  14.233
   15ETHO   H1343216  20.096   8.925  14.341
   15ETHO    C243217  20.046   8.891  14.141
   15ETHO   H2143218  20.031   8.783  14.160
   15ETHO   H2343219  19.948   8.943  14.139
   16ETHO    O143220  20.107   8.909  14.013
   16ETHO    C143221  20.039   8.831  13.918
   16ETHO   H1143222  20.066   8.726  13.942
   16ETHO   H1343223  19.931   8.849  13.934
   16ETHO    C243224  20.095   8.868  13.786
   16ETHO   H2143225  20.056   8.970  13.765
   16ETHO   H2343226  20.059   8.790  13.716
   17ETHO    O143227  20.233   8.866  13.769
   17ETHO    C143228  20.273   8.926  13.648
   17ETHO   H1143229  20.217   9.021  13.633
   17ETHO   H1343230  20.379   8.956  13.654
   17ETHO    C243231  20.251   8.823  13.533
   17ETHO   H2143232  20.272   8.868  13.433
   17ETHO   H2343233  20.147   8.786  13.523
   18ETHO    O143234  20.338   8.713  13.558
   18ETHO    C143235  20.305   8.601  13.469
   18ETHO   H1143236  20.211   8.549  13.497
   18ETHO   H1343237  20.288   8.632  13.363
   18ETHO    C243238  20.423   8.501  13.470
   18ETHO   H2143239  20.391   8.397  13.447
   18ETHO   H2343240  20.473   8.503  13.569
   19ETHO    O143241  20.521   8.554  13.379
   19ETHO    C143242  20.553   8.450  13.290
   19ETHO   H1143243  20.463   8.417  13.234
   19ETHO   H1343244  20.592   8.363  13.346
   19ETHO    C243245  20.659   8.503  13.196
   19ETHO   H2143246  20.728   8.419  13.175
   19ETHO   H2343247  20.704   8.596  13.237
   20ETHO    O143248  20.591   8.543  13.082
   20ETHO    C143249  20.676   8.590  12.978
   20ETHO   H1143250  20.725   8.685  13.011
   20ETHO   H1343251  20.751   8.512  12.953
   20ETHO    C243252  20.600   8.629  12.853
   20ETHO   H2143253  20.676   8.654  12.776
   20ETHO   H2343254  20.523   8.708  12.870
   21ETHO    O143255  20.536   8.514  12.798
   21ETHO    C143256  20.465   8.534  12.673
   21ETHO   H1143257  20.544   8.548  12.596
   21ETHO   H1343258  20.415   8.633  12.679
   21ETHO    C243259  20.368   8.414  12.655
   21ETHO   H2143260  20.432   8.324  12.668
   21ETHO   H2343261  20.325   8.409  12.553
   22ETHO    O143262  20.265   8.412  12.755
   22ETHO    C143263  20.184   8.299  12.751
   22ETHO   H1143264  20.141   8.275  12.652
   22ETHO   H1343265  20.234   8.207  12.789
   22ETHO    C243266  20.070   8.304  12.857
   22ETHO   H2143267  20.019   8.206  12.868
   22ETHO   H2343268  20.116   8.339  12.952
   23ETHO    O143269  19.963   8.395  12.849
   23ETHO    C143270  19.875   8.368  12.736
   23ETHO   H1143271  19.832   8.266  12.732
   23ETHO   H1343272  19.940   8.382  12.647
   23ETHO    C243273  19.752   8.458  12.730
   23ETHO   H2143274  19.710   8.447  12.627
   23ETHO   H2343275  19.768   8.566  12.751
   24ETHO    O143276  19.652   8.425  12.824
   24ETHO    C143277  19.533   8.512  12.816
   24ETHO   H1143278  19.466   8.482  12.900
   24ETHO   H1343279  19.560   8.616  12.844
   24ETHO    C243280  19.466   8.518  12.680
   24ETHO   H2143281  19.362   8.556  12.674
   24ETHO   H2343282  19.459   8.414  12.640
   25ETHO    O143283  19.531   8.593  12.578
   25ETHO    C143284  19.489   8.570  12.451
   25ETHO   H1143285  19.379   8.583  12.444
   25ETHO   H1343286  19.508   8.465  12.418
   25ETHO    C243287  19.558   8.664  12.348
   25ETHO   H2143288  19.545   8.771  12.373
   25ETHO   H2343289  19.516   8.650  12.246
   26ETHO    O143290  19.696   8.627  12.334
   26ETHO    C143291  19.775   8.706  12.243
   26ETHO   H1143292  19.733   8.678  12.143
   26ETHO   H1343293  19.751   8.812  12.264
   26ETHO    C243294  19.921   8.667  12.254
   26ETHO   H2143295  19.975   8.714  12.169
   26ETHO   H2343296  19.939   8.558  12.259
   27ETHO    O143297  19.963   8.717  12.380
   27ETHO    C143298  20.055   8.627  12.447
   27ETHO   H1143299  20.143   8.595  12.387
   27ETHO   H1343300  19.990   8.540  12.474
   27ETHO    C243301  20.092   8.690  12.580
   27ETHO   H2143302  20.113   8.619  12.663
   27ETHO   H2343303  20.010   8.758  12.610
   28ETHO    O143304  20.203   8.775  12.565
   28ETHO    C143305  20.214   8.856  12.685
   28ETHO   H1143306  20.142   8.940  12.669
   28ETHO   H1343307  20.187   8.798  12.775
   28ETHO    C243308  20.348   8.914  12.715
   28ETHO   H2143309  20.431   8.840  12.708
   28ETHO   H2343310  20.328   8.943  12.820
   29ETHO    O143311  20.383   9.032  12.646
   29ETHO    C143312  20.513   9.084  12.688
   29ETHO   H1143313  20.585   9.022  12.630
   29ETHO   H1343314  20.525   9.072  12.798
   29ETHO    C243315  20.531   9.233  12.643
   29ETHO   H2143316  20.624   9.262  12.698
   29ETHO   H2343317  20.445   9.299  12.665
   30ETHO    O143318  20.550   9.242  12.498
   30ETHO    C143319  20.605   9.370  12.460
   30ETHO   H1143320  20.545   9.455  12.501
   30ETHO   H1343321  20.715   9.360  12.474
   30ETHO    C243322  20.593   9.393  12.306
   30ETHO   H2143323  20.614   9.499  12.278
   30ETHO   H2343324  20.488   9.365  12.284
   31ETHO    O143325  20.671   9.315  12.219
   31ETHO    C143326  20.613   9.189  12.191
   31ETHO   H1143327  20.583   9.151  12.291
   31ETHO   H1343328  20.522   9.204  12.129
   31ETHO    C243329  20.709   9.088  12.131
   31ETHO   H2143330  20.771   9.123  12.045
   31ETHO   H2343331  20.650   8.999  12.100
   32ETHO    O143332  20.805   9.045  12.226
   32ETHO    C143333  20.897   8.947  12.170
   32ETHO   H1143334  20.942   8.881  12.246
   32ETHO   H1343335  20.835   8.880  12.106
   32ETHO    C243336  21.021   9.010  12.100
   32ETHO   H2143337  20.990   9.084  12.024
   32ETHO   H2343338  21.078   8.929  12.050
   33ETHO    O143339  21.101   9.067  12.204
   33ETHO    C143340  21.220   9.127  12.152
   33ETHO   H1143341  21.300   9.057  12.121
   33ETHO   H1343342  21.187   9.183  12.062
   33ETHO    C243343  21.277   9.223  12.252
   33ETHO   H2143344  21.207   9.303  12.283
   33ETHO   H2343345  21.367   9.270  12.208
   34ETHO    O143346  21.320   9.149  12.360
   34ETHO    C143347  21.360   9.243  12.467
   34ETHO   H1143348  21.264   9.263  12.519
   34ETHO   H1343349  21.384   9.342  12.422
   34ETHO    C243350  21.476   9.208  12.554
   34ETHO   H2143351  21.466   9.101  12.579
   34ETHO   H2343352  21.484   9.269  12.646
   35ETHO    O143353  21.602   9.230  12.488
   35ETHO    C143354  21.652   9.125  12.414
   35ETHO   H1143355  21.705   9.051  12.478
   35ETHO   H1343356  21.567   9.063  12.377
   35ETHO    C243357  21.750   9.175  12.306
   35ETHO   H2143358  21.822   9.095  12.280
   35ETHO   H2343359  21.818   9.254  12.345
   36ETHO    O143360  21.686   9.216  12.184
   36ETHO    C143361  21.645   9.351  12.186
   36ETHO   H1143362  21.736   9.411  12.205
   36ETHO   H1343363  21.578   9.370  12.273
   36ETHO    C243364  21.578   9.399  12.059
   36ETHO   H2143365  21.517   9.490  12.081
   36ETHO   H2343366  21.513   9.327  12.005
   37ETHO    O143367  21.676   9.424  11.965
   37ETHO    C143368  21.624   9.442  11.835
   37ETHO   H1143369  21.579   9.344  11.809
   37ETHO   H1343370  21.551   9.526  11.835
   37ETHO    C243371  21.733   9.472  11.729
   37ETHO   H2143372  21.706   9.440  11.626
   37ETHO   H2343373  21.822   9.414  11.759
   38ETHO    O143374  21.767   9.609  11.709
   38ETHO    C143375  21.842   9.661  11.816
   38ETHO   H1143376  21.921   9.717  11.762
   38ETHO   H1343377  21.894   9.584  11.877
   38ETHO    C243378  21.760   9.758  11.903
   38ETHO   H2143379  21.670   9.704  11.938
   38ETHO   H2343380  21.722   9.840  11.839
   39ETHO    O143381  21.829   9.826  12.008
   39ETHO    C143382  21.737   9.910  12.071
   39ETHO   H1143383  21.708   9.989  11.997
   39ETHO   H1343384  21.647   9.854  12.104
   39ETHO    C243385  21.809   9.970  12.190
   39ETHO   H2143386  21.777  10.074  12.211
   39ETHO   H2343387  21.917   9.978  12.164
   40ETHO    O143388  21.802   9.896  12.314
   40ETHO    C143389  21.909   9.800  12.316
   40ETHO   H1143390  22.005   9.856  12.311
   40ETHO   H1343391  21.895   9.727  12.233
   40ETHO    C243392  21.930   9.723  12.449
   40ETHO   H2143393  22.014   9.650  12.440
   40ETHO   H2343394  21.841   9.659  12.468
   41ETHO    O143395  21.958   9.821  12.543
   41ETHO    C143396  21.849   9.854  12.632
   41ETHO   H1143397  21.765   9.883  12.565
   41ETHO   H1343398  21.809   9.766  12.686
   41ETHO    C243399  21.882   9.962  12.734
   41ETHO   H2143400  21.795   9.965  12.803
   41ETHO   H2343401  21.887  10.061  12.685
   42ETHO    O143402  21.996   9.929  12.803
   42ETHO    C143403  22.038  10.011  12.909
   42ETHO   H1143404  22.065  10.109  12.865
   42ETHO   H1343405  21.964  10.039  12.987
   42ETHO    C243406  22.154   9.953  12.996
   42ETHO   H2143407  22.185  10.024  13.075
   42ETHO   H2343408  22.242   9.930  12.931
   43ETHO    O143409  22.113   9.830  13.051
   43ETHO    C143410  22.159   9.817  13.182
   43ETHO   H1143411  22.268   9.839  13.186
   43ETHO   H1343412  22.119   9.888  13.257
   43ETHO    C243413  22.119   9.682  13.243
   43ETHO   H2143414  22.178   9.664  13.336
   43ETHO   H2343415  22.141   9.602  13.169
   44ETHO    O143416  21.978   9.667  13.272
   44ETHO    C143417  21.955   9.549  13.346
   44ETHO   H1143418  22.015   9.465  13.304
   44ETHO   H1343419  22.000   9.570  13.445
   44ETHO    C243420  21.805   9.526  13.351
   44ETHO   H2143421  21.771   9.432  13.399
   44ETHO   H2343422  21.763   9.527  13.248
   45ETHO    O143423  21.758   9.645  13.413
   45ETHO    C143424  21.623   9.632  13.451
   45ETHO   H1143425  21.586   9.725  13.500
   45ETHO   H1343426  21.617   9.545  13.519
   45ETHO    C243427  21.524   9.611  13.333
   45ETHO   H2143428  21.557   9.682  13.254
   45ETHO   H2343429  21.421   9.632  13.368
   46ETHO    O143430  21.524   9.478  13.275
   46ETHO    C143431  21.457   9.464  13.147
   46ETHO   H1143432  21.349   9.489  13.146
   46ETHO   H1343433  21.507   9.543  13.086
   46ETHO    C243434  21.481   9.330  13.082
   46ETHO   H2143435  21.591   9.314  13.088
   46ETHO   H2343436  21.441   9.341  12.979
   47ETHO    O143437  21.439   9.224  13.161
   47ETHO    C143438  21.296   9.213  13.157
   47ETHO   H1143439  21.245   9.301  13.203
   47ETHO   H1343440  21.276   9.123  13.220
   47ETHO    C243441  21.238   9.176  13.019
   47ETHO   H2143442  21.158   9.099  13.024
   47ETHO   H2343443  21.321   9.125  12.965
   48ETHO    O143444  21.202   9.287  12.934
   48ETHO    C143445  21.164   9.236  12.806
   48ETHO   H1143446  21.256   9.197  12.757
   48ETHO   H1343447  21.077   9.169  12.823
   48ETHO    C243448  21.106   9.346  12.714
   48ETHO   H2143449  21.176   9.429  12.691
   48ETHO   H2343450  21.072   9.297  12.620
   49ETHO    O143451  21.008   9.414  12.789
   49ETHO    C143452  20.931   9.499  12.705
   49ETHO   H1143453  20.891   9.452  12.612
   49ETHO   H1343454  20.992   9.588  12.676
   49ETHO    C243455  20.810   9.549  12.781
   49ETHO   H2143456  20.851   9.609  12.865
   49ETHO   H2343457  20.762   9.471  12.843
   50ETHO    O143458  20.725   9.616  12.689
   50ETHO    C143459  20.624   9.699  12.749
   50ETHO   H1143460  20.540   9.638  12.789
   50ETHO   H1343461  20.662   9.750  12.840
   50ETHO    C243462  20.583   9.808  12.650
   50ETHO   H2143463  20.518   9.889  12.691
   50ETHO   H2343464  20.537   9.754  12.564
   51ETHO    O143465  20.704   9.866  12.598
   51ETHO    C143466  20.683   9.987  12.508
   51ETHO   H1143467  20.775  10.046  12.490
   51ETHO   H1343468  20.608  10.044  12.567
   51ETHO    C243469  20.626   9.953  12.372
   51ETHO   H2143470  20.596   9.846  12.378
   51ETHO   H2343471  20.705   9.951  12.294
   52ETHO    O143472  20.493  10.001  12.342
   52ETHO    C143473  20.484  10.043  12.210
   52ETHO   H1143474  20.380  10.082  12.201
   52ETHO   H1343475  20.559  10.120  12.183
   52ETHO    C243476  20.501   9.933  12.106
   52ETHO   H2143477  20.600   9.883  12.112
   52ETHO   H2343478  20.481   9.972  12.004
   53ETHO    O143479  20.412   9.826  12.131
   53ETHO    C143480  20.451   9.710  12.065
   53ETHO   H1143481  20.494   9.738  11.967
   53ETHO   H1343482  20.546   9.668  12.106
   53ETHO    C243483  20.342   9.596  12.056
   53ETHO   H2143484  20.386   9.511  12.000
   53ETHO   H2343485  20.266   9.650  11.995
   54ETHO    O143486  20.301   9.555  12.189
   54ETHO    C143487  20.191   9.460  12.186
   54ETHO   H1143488  20.096   9.516  12.194
   54ETHO   H1343489  20.187   9.405  12.090
   54ETHO    C243490  20.196   9.365  12.308
   54ETHO   H2143491  20.297   9.319  12.303
   54ETHO   H2343492  20.127   9.278  12.303
   55ETHO    O143493  20.155   9.433  12.424
   55ETHO    C143494  20.180   9.361  12.551
   55ETHO   H1143495  20.135   9.259  12.545
   55ETHO   H1343496  20.291   9.372  12.557
   55ETHO    C243497  20.116   9.435  12.673
   55ETHO   H2143498  20.011   9.462  12.650
   55ETHO   H2343499  20.114   9.360  12.755
   56ETHO    O143500  20.194   9.543  12.722
   56ETHO    C143501  20.117   9.617  12.818
   56ETHO   H1143502  20.057   9.553  12.886
   56ETHO   H1343503  20.043   9.677  12.760
   56ETHO    C243504  20.207   9.708  12.900
   56ETHO   H2143505  20.137   9.753  12.974
   56ETHO   H2343506  20.266   9.783  12.843
   57ETHO    O143507  20.318   9.652  12.967
   57ETHO    C143508  20.278   9.561  13.065
   57ETHO   H1143509  20.203   9.608  13.132
   57ETHO   H1343510  20.234   9.469  13.020
   57ETHO    C243511  20.397   9.510  13.149
   57ETHO   H2143512  20.465   9.480  13.067
   57ETHO   H2343513  20.366   9.419  13.205
   58ETHO    O143514  20.473   9.591  13.236
   58ETHO    C143515  20.593   9.521  13.280
   58ETHO   H1143516  20.665   9.500  13.198
   58ETHO   H1343517  20.565   9.423  13.325
   58ETHO    C243518  20.656   9.611  13.389
   58ETHO   H2143519  20.728   9.551  13.449
   58ETHO   H2343520  20.579   9.649  13.459
   59ETHO    O143521  20.738   9.709  13.330
   59ETHO    C143522  20.768   9.808  13.428
   59ETHO   H1143523  20.677   9.857  13.469
   59ETHO   H1343524  20.811   9.760  13.518
   59ETHO    C243525  20.856   9.917  13.362
   59ETHO   H2143526  20.877   9.990  13.443
   59ETHO   H2343527  20.816   9.977  13.278
   60ETHO    O143528  20.973   9.842  13.320
   60ETHO    C143529  21.062   9.915  13.240
   60ETHO   H1143530  21.120   9.975  13.313
   60ETHO   H1343531  21.006   9.987  13.178
   60ETHO    C243532  21.151   9.822  13.163
   60ETHO   H2143533  21.204   9.750  13.228
   60ETHO   H2343534  21.229   9.868  13.097
   61ETHO    O143535  21.080   9.744  13.061
   61ETHO    C143536  21.168   9.642  13.002
   61ETHO   H1143537  21.189   9.572  13.085
   61ETHO   H1343538  21.093   9.597  12.934
   61ETHO    C243539  21.282   9.693  12.919
   61ETHO   H2143540  21.253   9.778  12.852
   61ETHO   H2343541  21.333   9.616  12.857
   62ETHO    O143542  21.388   9.734  13.005
   62ETHO    C143543  21.492   9.792  12.935
   62ETHO   H1143544  21.463   9.889  12.889
   62ETHO   H1343545  21.529   9.735  12.847
   62ETHO    C243546  21.616   9.831  13.021
   62ETHO   H2143547  21.706   9.850  12.958
   62ETHO   H2343548  21.650   9.745  13.083
   63ETHO    O143549  21.599   9.945  13.095
   63ETHO    C143550  21.704   9.961  13.192
   63ETHO   H1143551  21.714   9.862  13.240
   63ETHO   H1343552  21.801   9.964  13.137
   63ETHO    C243553  21.685  10.087  13.274
   63ETHO   H2143554  21.763  10.104  13.351
   63ETHO   H2343555  21.592  10.075  13.334
   64ETHO    O143556  21.669  10.182  13.177
   64ETHO    C143557  21.592  10.291  13.229
   64ETHO   H1143558  21.663  10.373  13.251
   64ETHO   H1343559  21.554  10.265  13.330
   64ETHO    C243560  21.484  10.345  13.137
   64ETHO   H2143561  21.428  10.424  13.192
   64ETHO   H2343562  21.400  10.281  13.101
   65ETHO    O143563  21.539  10.422  13.026
   65ETHO    C143564  21.590  10.551  13.065
   65ETHO   H1143565  21.526  10.589  13.148
   65ETHO   H1343566  21.692  10.549  13.110
   65ETHO    C243567  21.578  10.649  12.952
   65ETHO   H2143568  21.621  10.611  12.857
   65ETHO   H2343569  21.637  10.735  12.989
   66ETHO    O143570  21.445  10.700  12.923
   66ETHO    C143571  21.367  10.613  12.846
   66ETHO   H1143572  21.328  10.533  12.913
   66ETHO   H1343573  21.425  10.555  12.771
   66ETHO    C243574  21.270  10.693  12.763
   66ETHO   H2143575  21.223  10.624  12.690
   66ETHO   H2343576  21.331  10.769  12.710
   67ETHO    O143577  21.171  10.757  12.846
   67ETHO    C143578  21.068  10.821  12.768
   67ETHO   H1143579  21.120  10.900  12.710
   67ETHO   H1343580  21.021  10.742  12.706
   67ETHO    C243581  20.970  10.892  12.856
   67ETHO   H2143582  20.891  10.943  12.796
   67ETHO   H2343583  21.028  10.970  12.909
   68ETHO    O143584  20.908  10.811  12.955
   68ETHO    C143585  20.826  10.708  12.899
   68ETHO   H1143586  20.770  10.738  12.809
   68ETHO   H1343587  20.900  10.634  12.861
   68ETHO    C243588  20.736  10.651  13.006
   68ETHO   H2143589  20.642  10.711  13.010
   68ETHO   H2343590  20.792  10.675  13.098
   69ETHO    O143591  20.700  10.515  12.990
   69ETHO    C143592  20.621  10.488  12.873
   69ETHO   H1143593  20.515  10.508  12.899
   69ETHO   H1343594  20.656  10.545  12.784
   69ETHO    C243595  20.619  10.332  12.847
   69ETHO   H2143596  20.723  10.294  12.833
   69ETHO   H2343597  20.568  10.323  12.748
   70ETHO    O143598  20.555  10.249  12.945
   70ETHO    C143599  20.606  10.115  12.937
   70ETHO   H1143600  20.530  10.050  12.986
   70ETHO   H1343601  20.633  10.082  12.834
   70ETHO    C243602  20.740  10.078  13.011
   70ETHO   H2143603  20.744   9.968  12.995
   70ETHO   H2343604  20.743  10.107  13.118
   71ETHO    O143605  20.861  10.125  12.954
   71ETHO    C143606  20.927  10.027  12.878
   71ETHO   H1143607  20.878  10.013  12.779
   71ETHO   H1343608  20.943   9.936  12.941
   71ETHO    C243609  21.070  10.077  12.841
   71ETHO   H2143610  21.136   9.990  12.819
   71ETHO   H2343611  21.121  10.125  12.928
   72ETHO    O143612  21.056  10.151  12.715
   72ETHO    C143613  21.010  10.283  12.730
   72ETHO   H1143614  20.914  10.296  12.786
   72ETHO   H1343615  21.089  10.329  12.793
   72ETHO    C243616  20.996  10.365  12.600
   72ETHO   H2143617  20.941  10.461  12.614
   72ETHO   H2343618  20.929  10.311  12.530
   73ETHO    O143619  21.117  10.391  12.534
   73ETHO    C143620  21.101  10.419  12.399
   73ETHO   H1143621  21.011  10.477  12.367
   73ETHO   H1343622  21.091  10.322  12.346
   73ETHO    C243623  21.236  10.485  12.348
   73ETHO   H2143624  21.313  10.419  12.393
   73ETHO   H2343625  21.243  10.589  12.387
   74ETHO    O143626  21.253  10.487  12.207
   74ETHO    C143627  21.387  10.511  12.172
   74ETHO   H1143628  21.433  10.589  12.235
   74ETHO   H1343629  21.443  10.419  12.201
   74ETHO    C243630  21.409  10.549  12.024
   74ETHO   H2143631  21.341  10.491  11.957
   74ETHO   H2343632  21.517  10.537  12.003
   75ETHO    O143633  21.379  10.683  12.012
   75ETHO    C143634  21.412  10.728  11.883
   75ETHO   H1143635  21.359  10.657  11.816
   75ETHO   H1343636  21.520  10.720  11.858
   75ETHO    C243637  21.379  10.878  11.869
   75ETHO   H2143638  21.286  10.891  11.930
   75ETHO   H2343639  21.344  10.890  11.764
   76ETHO    O143640  21.489  10.960  11.900
   76ETHO    C143641  21.490  10.986  12.039
   76ETHO   H1143642  21.405  11.056  12.055
   76ETHO   H1343643  21.461  10.891  12.090
   76ETHO    C243644  21.616  11.054  12.107
   76ETHO   H2143645  21.581  11.088  12.207
   76ETHO   H2343646  21.642  11.133  12.033
   77ETHO    O143647  21.736  10.969  12.121
   77ETHO    C143648  21.843  11.041  12.164
   77ETHO   H1143649  21.859  11.136  12.108
   77ETHO   H1343650  21.939  10.996  12.132
   77ETHO    C243651  21.853  11.054  12.320
   77ETHO   H2143652  21.958  11.061  12.356
   77ETHO   H2343653  21.802  10.965  12.363
   78ETHO    O143654  21.787  11.172  12.370
   78ETHO    C143655  21.821  11.217  12.502
   78ETHO   H1143656  21.792  11.132  12.568
   78ETHO   H1343657  21.931  11.226  12.514
   78ETHO    C243658  21.753  11.352  12.532
   78ETHO   H2143659  21.654  11.346  12.482
   78ETHO   H2343660  21.815  11.437  12.496
   79ETHO    O143661  21.739  11.368  12.675
   79ETHO    C143662  21.649  11.479  12.716
   79ETHO   H1143663  21.689  11.542  12.798
   79ETHO   H1343664  21.627  11.535  12.623
   79ETHO    C243665  21.513  11.414  12.759
   79ETHO   H2143666  21.453  11.482  12.823
   79ETHO   H2343667  21.538  11.326  12.823
   80ETHO    O143668  21.449  11.370  12.641
   80ETHO    C143669  21.338  11.289  12.681
   80ETHO   H1143670  21.324  11.286  12.791
   80ETHO   H1343671  21.242  11.333  12.648
   80ETHO    C243672  21.371  11.147  12.642
   80ETHO   H2143673  21.300  11.085  12.701
   80ETHO   H2343674  21.464  11.103  12.685
   81ETHO    O143675  21.356  11.125  12.498
   81ETHO    C143676  21.405  10.996  12.450
   81ETHO   H1143677  21.507  11.008  12.410
   81ETHO   H1343678  21.401  10.931  12.541
   81ETHO    C243679  21.317  10.930  12.339
   81ETHO   H2143680  21.296  10.998  12.253
   81ETHO   H2343681  21.370  10.844  12.293
   82ETHO    O143682  21.197  10.868  12.385
   82ETHO    C143683  21.105  10.842  12.276
   82ETHO   H1143684  21.138  10.771  12.198
   82ETHO   H1343685  21.071  10.931  12.219
   82ETHO    C243686  20.972  10.779  12.330
   82ETHO   H2143687  20.980  10.679  12.378
   82ETHO   H2343688  20.906  10.758  12.242
   83ETHO    O143689  20.911  10.868  12.423
   83ETHO    C143690  20.848  10.978  12.352
   83ETHO   H1143691  20.915  11.054  12.306
   83ETHO   H1343692  20.775  10.955  12.272
   83ETHO    C243693  20.759  11.065  12.439
   83ETHO   H2143694  20.715  11.144  12.376
   83ETHO   H2343695  20.810  11.102  12.531
   84ETHO    O143696  20.642  10.992  12.485
   84ETHO    C143697  20.603  11.044  12.612
   84ETHO   H1143698  20.596  11.155  12.607
   84ETHO   H1343699  20.678  11.023  12.691
   84ETHO    C243700  20.469  10.985  12.668
   84ETHO   H2143701  20.380  10.989  12.602
   84ETHO   H2343702  20.441  11.038  12.762
   85ETHO    O143703  20.497  10.848  12.688
   85ETHO    C143704  20.379  10.774  12.737
   85ETHO   H1143705  20.290  10.800  12.676
   85ETHO   H1343706  20.397  10.672  12.696
   85ETHO    C243707  20.349  10.762  12.887
   85ETHO   H2143708  20.318  10.857  12.934
   85ETHO   H2343709  20.439  10.724  12.939
   86ETHO    O143710  20.242  10.670  12.908
   86ETHO    C143711  20.208  10.649  13.046
   86ETHO   H1143712  20.166  10.741  13.093
   86ETHO   H1343713  20.299  10.626  13.105
   86ETHO    C243714  20.108  10.530  13.063
   86ETHO   H2143715  20.017  10.560  13.008
   86ETHO   H2343716  20.080  10.534  13.170
   87ETHO    O143717  20.156  10.398  13.024
   87ETHO    C143718  20.051  10.301  13.056
   87ETHO   H1143719  20.014  10.307  13.161
   87ETHO   H1343720  19.966  10.335  12.994
   87ETHO    C243721  20.110  10.162  13.029
   87ETHO   H2143722  20.213  10.163  13.069
   87ETHO   H2343723  20.126  10.155  12.920
   88ETHO    O143724  20.038  10.049  13.065
   88ETHO    C143725  19.897  10.067  13.044
   88ETHO   H1143726  19.870  10.107  12.943
   88ETHO   H1343727  19.869  10.139  13.123
   88ETHO    C243728  19.802   9.948  13.066
   88ETHO   H2143729  19.706   9.985  13.109
   88ETHO   H2343730  19.843   9.896  13.155
   89ETHO    O143731  19.788   9.871  12.944
   89ETHO    C143732  19.713   9.743  12.975
   89ETHO   H1143733  19.766   9.682  13.051
   89ETHO   H1343734  19.618   9.772  13.023
   89ETHO    C243735  19.691   9.656  12.855
   89ETHO   H2143736  19.659   9.553  12.881
   89ETHO   H2343737  19.779   9.642  12.788
   90ETHO    O143738  19.591   9.716  12.773
   90ETHO    C143739  19.579   9.644  12.655
   90ETHO   H1143740  19.676   9.654  12.600
   90ETHO   H1343741  19.574   9.535  12.673
   90ETHO    C243742  19.453   9.675  12.573
   90ETHO   H2143743  19.466   9.598  12.494
   90ETHO   H2343744  19.456   9.779  12.535
   91ETHO    O143745  19.325   9.658  12.626
   91ETHO    C143746  19.228   9.724  12.550
   91ETHO   H1143747  19.245   9.834  12.550
   91ETHO   H1343748  19.244   9.694  12.445
   91ETHO    C243749  19.081   9.690  12.588
   91ETHO   H2143750  19.082   9.715  12.696
   91ETHO   H2343751  19.081   9.580  12.574
   92ETHO    O143752  18.982   9.762  12.522
   92ETHO    C143753  18.857   9.738  12.580
   92ETHO   H1143754  18.856   9.628  12.570
   92ETHO   H1343755  18.859   9.767  12.687
   92ETHO    C243756  18.747   9.799  12.496
   92ETHO   H2143757  18.647   9.758  12.522
   92ETHO   H2343758  18.760   9.750  12.398
   93ETHO    O143759  18.749   9.942  12.494
   93ETHO    C143760  18.685  10.000  12.610
   93ETHO   H1143761  18.765   9.984  12.685
   93ETHO   H1343762  18.609   9.925  12.643
   93ETHO    C243763  18.641  10.145  12.588
   93ETHO   H2143764  18.556  10.145  12.517
   93ETHO   H2343765  18.729  10.202  12.550
   94ETHO    O143766  18.590  10.215  12.700
   94ETHO    C143767  18.569  10.356  12.672
   94ETHO   H1143768  18.585  10.415  12.765
   94ETHO   H1343769  18.652  10.388  12.606
   94ETHO    C243770  18.438  10.375  12.607
   94ETHO   H2143771  18.419  10.335  12.505
   94ETHO   H2343772  18.412  10.482  12.591
   95ETHO    O143773  18.327  10.337  12.688
   95ETHO    C143774  18.204  10.341  12.613
   95ETHO   H1143775  18.182  10.249  12.554
   95ETHO   H1343776  18.202  10.419  12.534
   95ETHO    C243777  18.093  10.364  12.718
   95ETHO   H2143778  18.062  10.469  12.738
   95ETHO   H2343779  18.129  10.310  12.809
   96ETHO    O143780  17.986  10.300  12.655
   96ETHO    C143781  17.888  10.288  12.758
   96ETHO   H1143782  17.938  10.218  12.829
   96ETHO   H1343783  17.871  10.389  12.800
   96ETHO    C243784  17.755  10.224  12.703
   96ETHO   H2143785  17.712  10.159  12.783
   96ETHO   H2343786  17.774  10.159  12.615
   97ETHO    O143787  17.648  10.315  12.667
   97ETHO    C143788  17.562  10.335  12.783
   97ETHO   H1143789  17.620  10.318  12.877
   97ETHO   H1343790  17.479  10.262  12.796
   97ETHO    C243791  17.496  10.475  12.781
   97ETHO   H2143792  17.570  10.551  12.747
   97ETHO   H2343793  17.457  10.501  12.882
   98ETHO    O143794  17.386  10.481  12.689
   98ETHO    C143795  17.338  10.613  12.668
   98ETHO   H1143796  17.337  10.664  12.767
   98ETHO   H1343797  17.403  10.673  12.602
   98ETHO    C243798  17.201  10.600  12.611
   98ETHO   H2143799  17.198  10.501  12.561
   98ETHO   H2343800  17.188  10.679  12.535
   99ETHO    O143801  17.097  10.623  12.709
   99ETHO    C143802  16.975  10.605  12.641
   99ETHO   H1143803  16.971  10.502  12.601
   99ETHO   H1343804  16.975  10.687  12.566
   99ETHO    C243805  16.853  10.602  12.735
   99ETHO   H2143806  16.860  10.513  12.802
   99ETHO   H2343807  16.760  10.587  12.677
  100ETHO    O143808  16.832  10.724  12.813
  100ETHO    C143809  16.708  10.708  12.891
  100ETHO   H1143810  16.622  10.680  12.827
  100ETHO   H1343811  16.728  10.626  12.963
  100ETHO    C243812  16.666  10.829  12.969
  100ETHO   H2143813  16.753  10.848  13.035
  100ETHO   H2343814  16.579  10.823  13.039
  101PROX    O143815  16.641  10.948  12.899
  101PROX    C143816  16.539  10.932  12.801
  101PROX   H1143817  16.578  10.872  12.715
  101PROX   H1343818  16.446  10.893  12.847
  101PROX    C243819  16.511  11.079  12.754
  101PROX   H2143820  16.607  11.134  12.747
  101PROX    C343821  16.430  11.149  12.863
  101PROX   H3143822  16.487  11.147  12.958
  101PROX   H3243823  16.411  11.255  12.834
  101PROX   H3343824  16.333  11.098  12.880
  102PROX    O143825  16.450  11.071  12.633
  102PROX    C143826  16.456  11.192  12.561
  102PROX   H1143827  16.410  11.270  12.625
  102PROX   H1343828  16.556  11.234  12.536
  102PROX    C243829  16.371  11.183  12.429
  102PROX   H2143830  16.278  11.133  12.465
  102PROX    C343831  16.419  11.098  12.311
  102PROX   H3143832  16.521  11.131  12.282
  102PROX   H3243833  16.425  10.993  12.347
  102PROX   H3343834  16.352  11.096  12.222
  103PROX    O143835  16.340  11.314  12.389
  103PROX    C143836  16.207  11.329  12.328
  103PROX   H1143837  16.209  11.377  12.228
  103PROX   H1343838  16.164  11.228  12.311
  103PROX    C243839  16.109  11.387  12.433
  103PROX   H2143840  16.014  11.376  12.377
  103PROX    C343841  16.121  11.536  12.478
  103PROX   H3143842  16.196  11.538  12.560
  103PROX   H3243843  16.167  11.608  12.406
  103PROX   H3343844  16.020  11.563  12.517
  104PROX    O143845  16.115  11.309  12.549
  104PROX    C143846  15.993  11.292  12.627
  104PROX   H1143847  15.923  11.373  12.598
  104PROX   H1343848  15.937  11.202  12.596
  104PROX    C243849  16.020  11.291  12.777
  104PROX   H2143850  16.112  11.231  12.795
  104PROX    C343851  15.904  11.224  12.853
  104PROX   H3143852  15.927  11.192  12.957
  104PROX   H3243853  15.818  11.295  12.852
  104PROX   H3343854  15.869  11.142  12.786
  105PROX    O143855  16.038  11.429  12.813
  105PROX    C143856  16.090  11.442  12.945
  105PROX   H1143857  16.006  11.447  13.018
  105PROX   H1343858  16.147  11.350  12.970
  105PROX    C243859  16.189  11.559  12.954
  105PROX   H2143860  16.127  11.652  12.957
  105PROX    C343861  16.300  11.564  12.852
  105PROX   H3143862  16.347  11.464  12.840
  105PROX   H3243863  16.263  11.584  12.750
  105PROX   H3343864  16.372  11.648  12.860
  106PROX    O143865  16.251  11.557  13.080
  106PROX    C143866  16.182  11.641  13.187
  106PROX   H1143867  16.077  11.668  13.161
  106PROX   H1343868  16.186  11.578  13.278
  106PROX    C243869  16.261  11.771  13.203
  106PROX   H2143870  16.349  11.780  13.136
  106PROX    C343871  16.314  11.786  13.350
  106PROX   H3143872  16.242  11.819  13.428
  106PROX   H3243873  16.351  11.689  13.390
  106PROX   H3343874  16.391  11.865  13.352
  107PROX    O143875  16.172  11.882  13.191
  107PROX    C143876  16.227  11.998  13.138
  107PROX   H1143877  16.172  12.083  13.183
  107PROX   H1343878  16.334  12.006  13.167
  107PROX    C243879  16.222  12.007  12.981
  107PROX   H2143880  16.285  11.921  12.948
  107PROX    C343881  16.278  12.137  12.934
  107PROX   H3143882  16.286  12.148  12.824
  107PROX   H3243883  16.210  12.220  12.962
  107PROX   H3343884  16.378  12.165  12.975
  108PROX    O143885  16.083  11.978  12.944
  108PROX    C143886  16.065  11.943  12.807
  108PROX   H1143887  16.116  12.025  12.751
  108PROX   H1343888  16.112  11.845  12.785
  108PROX    C243889  15.920  11.950  12.762
  108PROX   H2143890  15.895  12.049  12.805
  108PROX    C343891  15.818  11.851  12.824
  108PROX   H3143892  15.836  11.835  12.932
  108PROX   H3243893  15.716  11.883  12.793
  108PROX   H3343894  15.847  11.752  12.784
  109PROX    O143895  15.907  11.972  12.622
  109PROX    C143896  15.786  12.050  12.589
  109PROX   H1143897  15.695  11.999  12.629
  109PROX   H1343898  15.790  12.148  12.639
  109PROX    C243899  15.769  12.063  12.438
  109PROX   H2143900  15.667  12.095  12.410
  109PROX    C343901  15.793  11.923  12.376
  109PROX   H3143902  15.708  11.859  12.406
  109PROX   H3243903  15.788  11.913  12.265
  109PROX   H3343904  15.896  11.885  12.394
  110PROX    O143905  15.863  12.161  12.401
  110PROX    C143906  15.856  12.195  12.259
  110PROX   H1143907  15.850  12.100  12.201
  110PROX   H1343908  15.774  12.267  12.240
  110PROX    C243909  15.982  12.267  12.216
  110PROX   H2143910  16.067  12.196  12.220
  110PROX    C343911  16.014  12.395  12.288
  110PROX   H3143912  16.046  12.374  12.393
  110PROX   H3243913  16.077  12.467  12.233
  110PROX   H3343914  15.918  12.451  12.286
  111PROX    O143915  15.965  12.309  12.085
  111PROX    C143916  15.993  12.223  11.973
  111PROX   H1143917  15.936  12.128  11.973
  111PROX   H1343918  15.955  12.281  11.886
  111PROX    C243919  16.148  12.219  11.948
  111PROX   H2143920  16.207  12.228  12.042
  111PROX    C343921  16.200  12.319  11.853
  111PROX   H3143922  16.188  12.426  11.883
  111PROX   H3243923  16.309  12.299  11.841
  111PROX   H3343924  16.154  12.307  11.753
  112PROX    O143925  16.180  12.100  11.878
  112PROX    C143926  16.157  11.980  11.951
  112PROX   H1143927  16.176  11.994  12.059
  112PROX   H1343928  16.058  11.936  11.927
  112PROX    C243929  16.272  11.878  11.921
  112PROX   H2143930  16.363  11.921  11.968
  112PROX    C343931  16.293  11.853  11.772
  112PROX   H3143932  16.339  11.939  11.718
  112PROX   H3243933  16.353  11.764  11.744
  112PROX   H3343934  16.192  11.842  11.726
  113PROX    O143935  16.242  11.750  11.978
  113PROX    C143936  16.357  11.668  12.016
  113PROX   H1143937  16.318  11.565  12.027
  113PROX   H1343938  16.432  11.665  11.934
  113PROX    C243939  16.428  11.710  12.142
  113PROX   H2143940  16.470  11.812  12.130
  113PROX    C343941  16.549  11.625  12.178
  113PROX   H3143942  16.604  11.660  12.268
  113PROX   H3243943  16.516  11.520  12.196
  113PROX   H3343944  16.615  11.626  12.089
  114PROX    O143945  16.342  11.710  12.262
  114PROX    C143946  16.269  11.827  12.288
  114PROX   H1143947  16.253  11.891  12.199
  114PROX   H1343948  16.165  11.799  12.317
  114PROX    C243949  16.339  11.901  12.413
  114PROX   H2143950  16.446  11.920  12.390
  114PROX    C343951  16.334  11.821  12.542
  114PROX   H3143952  16.387  11.725  12.522
  114PROX   H3243953  16.378  11.883  12.622
  114PROX   H3343954  16.232  11.800  12.580
  115PROX    O143955  16.282  12.032  12.424
  115PROX    C143956  16.364  12.127  12.484
  115PROX   H1143957  16.300  12.174  12.561
  115PROX   H1343958  16.462  12.093  12.525
  115PROX    C243959  16.403  12.228  12.380
  115PROX   H2143960  16.312  12.288  12.357
  115PROX    C343961  16.432  12.164  12.242
  115PROX   H3143962  16.340  12.110  12.211
  115PROX   H3243963  16.445  12.241  12.164
  115PROX   H3343964  16.518  12.094  12.243
  116PROX    O143965  16.513  12.308  12.417
  116PROX    C143966  16.487  12.394  12.529
  116PROX   H1143967  16.441  12.333  12.610
  116PROX   H1343968  16.580  12.448  12.558
  116PROX    C243969  16.395  12.512  12.487
  116PROX   H2143970  16.292  12.472  12.478
  116PROX    C343971  16.440  12.588  12.366
  116PROX   H3143972  16.439  12.519  12.279
  116PROX   H3243973  16.378  12.680  12.352
  116PROX   H3343974  16.546  12.613  12.389
  117PROX    O143975  16.402  12.606  12.592
  117PROX    C143976  16.317  12.584  12.705
  117PROX   H1143977  16.307  12.477  12.733
  117PROX   H1343978  16.353  12.651  12.785
  117PROX    C243979  16.168  12.628  12.676
  117PROX   H2143980  16.117  12.574  12.594
  117PROX    C343981  16.166  12.776  12.629
  117PROX   H3143982  16.066  12.824  12.617
  117PROX   H3243983  16.219  12.838  12.705
  117PROX   H3343984  16.212  12.790  12.529
  118PROX    O143985  16.091  12.610  12.800
  118PROX    C143986  16.059  12.471  12.821
  118PROX   H1143987  15.998  12.426  12.739
  118PROX   H1343988  16.149  12.407  12.835
  118PROX    C243989  15.988  12.454  12.960
  118PROX   H2143990  15.903  12.526  12.954
  118PROX    C343991  16.080  12.510  13.066
  118PROX   H3143992  16.123  12.610  13.046
  118PROX   H3243993  16.024  12.525  13.161
  118PROX   H3343994  16.164  12.438  13.078
  119PROX    O143995  15.940  12.322  12.970
  119PROX    C143996  15.886  12.285  13.099
  119PROX   H1143997  15.973  12.275  13.167
  119PROX   H1343998  15.812  12.363  13.130
  119PROX    C243999  15.810  12.156  13.100
  119PROX   H2144000  15.873  12.065  13.085
  119PROX    C344001  15.697  12.169  13.000
  119PROX   H3144002  15.729  12.227  12.911
  119PROX   H3244003  15.646  12.081  12.955
  119PROX   H3344004  15.622  12.229  13.056
  120PROX    O144005  15.760  12.137  13.224
  120PROX    C144006  15.860  12.088  13.316
  120PROX   H1144007  15.964  12.090  13.278
  120PROX   H1344008  15.865  12.142  13.413
  120PROX    C244009  15.821  11.943  13.363
  120PROX   H2144010  15.901  11.920  13.437
  120PROX    C344011  15.835  11.836  13.249
  120PROX   H3144012  15.738  11.846  13.196
  120PROX   H3244013  15.921  11.874  13.189
  120PROX   H3344014  15.854  11.735  13.290
  121PROX    O144015  15.691  11.950  13.427
  121PROX    C144016  15.646  11.826  13.484
  121PROX   H1144017  15.610  11.748  13.414
  121PROX   H1344018  15.728  11.784  13.547
  121PROX    C244019  15.533  11.847  13.598
  121PROX   H2144020  15.553  11.945  13.648
  121PROX    C344021  15.528  11.738  13.706
  121PROX   H3144022  15.618  11.738  13.771
  121PROX   H3244023  15.435  11.759  13.763
  121PROX   H3344024  15.522  11.635  13.666
  122PROX    O144025  15.406  11.854  13.537
  122PROX    C144026  15.386  11.965  13.447
  122PROX   H1144027  15.413  12.066  13.484
  122PROX   H1344028  15.454  11.942  13.362
  122PROX    C244029  15.238  11.974  13.402
  122PROX   H2144030  15.175  11.977  13.493
  122PROX    C344031  15.204  11.857  13.306
  122PROX   H3144032  15.204  11.759  13.357
  122PROX   H3244033  15.101  11.873  13.267
  122PROX   H3344034  15.281  11.843  13.227
  123PROX    O144035  15.228  12.094  13.331
  123PROX    C144036  15.309  12.111  13.216
  123PROX   H1144037  15.418  12.110  13.240
  123PROX   H1344038  15.289  12.032  13.140
  123PROX    C244039  15.279  12.259  13.167
  123PROX   H2144040  15.300  12.322  13.255
  123PROX    C344041  15.140  12.276  13.114
  123PROX   H3144042  15.123  12.216  13.022
  123PROX   H3244043  15.058  12.250  13.185
  123PROX   H3344044  15.120  12.381  13.085
  124PROX    O144045  15.363  12.283  13.061
  124PROX    C144046  15.402  12.421  13.055
  124PROX   H1144047  15.314  12.490  13.058
  124PROX   H1344048  15.463  12.430  13.147
  124PROX    C244049  15.492  12.452  12.932
  124PROX   H2144050  15.522  12.357  12.883
  124PROX    C344051  15.602  12.553  12.986
  124PROX   H3144052  15.682  12.500  13.042
  124PROX   H3244053  15.659  12.604  12.905
  124PROX   H3344054  15.565  12.639  13.046
  125PROX    O144055  15.409  12.526  12.849
  125PROX    C144056  15.325  12.443  12.765
  125PROX   H1144057  15.392  12.397  12.689
  125PROX   H1344058  15.289  12.355  12.822
  125PROX    C244059  15.209  12.520  12.707
  125PROX   H2144060  15.245  12.592  12.631
  125PROX    C344061  15.135  12.603  12.804
  125PROX   H3144062  15.088  12.545  12.887
  125PROX   H3244063  15.197  12.677  12.859
  125PROX   H3344064  15.048  12.651  12.754
  126PROX    O144065  15.115  12.430  12.647
  126PROX    C144066  15.062  12.327  12.732
  126PROX   H1144067  15.121  12.236  12.709
  126PROX   H1344068  15.071  12.341  12.842
  126PROX    C244069  14.911  12.300  12.707
  126PROX   H2144070  14.894  12.283  12.598
  126PROX    C344071  14.824  12.424  12.742
  126PROX   H3144072  14.719  12.387  12.740
  126PROX   H3244073  14.832  12.460  12.847
  126PROX   H3344074  14.837  12.508  12.671
  127PROX    O144075  14.867  12.185  12.774
  127PROX    C144076  14.899  12.066  12.707
  127PROX   H1144077  14.846  12.065  12.609
  127PROX   H1344078  15.009  12.058  12.692
  127PROX    C244079  14.858  11.945  12.788
  127PROX   H2144080  14.761  11.973  12.833
  127PROX    C344081  14.975  11.911  12.888
  127PROX   H3144082  15.012  12.006  12.932
  127PROX   H3244083  14.941  11.835  12.961
  127PROX   H3344084  15.061  11.868  12.832
  128PROX    O144085  14.833  11.832  12.695
  128PROX    C144086  14.734  11.745  12.748
  128PROX   H1144087  14.663  11.804  12.809
  128PROX   H1344088  14.683  11.712  12.654
  128PROX    C244089  14.789  11.616  12.824
  128PROX   H2144090  14.817  11.655  12.924
  128PROX    C344091  14.917  11.562  12.761
  128PROX   H3144092  14.987  11.646  12.747
  128PROX   H3244093  14.964  11.497  12.837
  128PROX   H3344094  14.913  11.502  12.667
  129PROX    O144095  14.684  11.509  12.841
  129PROX    C144096  14.655  11.444  12.716
  129PROX   H1144097  14.706  11.483  12.626
  129PROX   H1344098  14.683  11.337  12.722
  129PROX    C244099  14.502  11.466  12.704
  129PROX   H2144100  14.452  11.412  12.787
  129PROX    C344101  14.463  11.386  12.574
  129PROX   H3144102  14.458  11.278  12.599
  129PROX   H3244103  14.360  11.414  12.544
  129PROX   H3344104  14.535  11.408  12.492
  130PROX    O144105  14.476  11.603  12.712
  130PROX    C144106  14.336  11.636  12.747
  130PROX   H1144107  14.268  11.585  12.675
  130PROX   H1344108  14.315  11.601  12.850
  130PROX    C244109  14.303  11.789  12.751
  130PROX   H2144110  14.393  11.836  12.798
  130PROX    C344111  14.174  11.816  12.837
  130PROX   H3144112  14.181  11.766  12.936
  130PROX   H3244113  14.155  11.924  12.850
  130PROX   H3344114  14.090  11.776  12.776
  131PROX    O144115  14.288  11.843  12.623
  131PROX    C144116  14.320  11.981  12.619
  131PROX   H1144117  14.249  12.039  12.555
  131PROX   H1344118  14.292  12.026  12.717
  131PROX    C244119  14.477  12.023  12.614
  131PROX   H2144120  14.552  11.962  12.667
  131PROX    C344121  14.488  12.171  12.661
  131PROX   H3144122  14.590  12.203  12.691
  131PROX   H3244123  14.443  12.241  12.588
  131PROX   H3344124  14.430  12.185  12.755
  132PROX    O144125  14.519  12.011  12.475
  132PROX    C144126  14.511  11.873  12.435
  132PROX   H1144127  14.511  11.806  12.524
  132PROX   H1344128  14.421  11.852  12.373
  132PROX    C244129  14.642  11.826  12.366
  132PROX   H2144130  14.720  11.857  12.438
  132PROX    C344131  14.659  11.897  12.228
  132PROX   H3144132  14.579  11.876  12.154
  132PROX   H3244133  14.665  12.006  12.246
  132PROX   H3344134  14.761  11.880  12.186
  133PROX    O144135  14.643  11.683  12.341
  133PROX    C144136  14.775  11.635  12.337
  133PROX   H1144137  14.845  11.695  12.275
  133PROX   H1344138  14.817  11.638  12.440
  133PROX    C244139  14.769  11.491  12.287
  133PROX   H2144140  14.669  11.452  12.316
  133PROX    C344141  14.887  11.401  12.345
  133PROX   H3144142  14.859  11.301  12.306
  133PROX   H3244143  14.984  11.438  12.305
  133PROX   H3344144  14.883  11.385  12.455
  134PROX    O144145  14.780  11.481  12.144
  134PROX    C144146  14.654  11.513  12.085
  134PROX   H1144147  14.583  11.428  12.094
  134PROX   H1344148  14.622  11.612  12.124
  134PROX    C244149  14.667  11.530  11.929
  134PROX   H2144150  14.561  11.526  11.895
  134PROX    C344151  14.760  11.430  11.862
  134PROX   H3144152  14.840  11.396  11.931
  134PROX   H3244153  14.697  11.343  11.833
  134PROX   H3344154  14.800  11.465  11.764
  135PROX    O144155  14.695  11.668  11.905
  135PROX    C144156  14.834  11.703  11.937
  135PROX   H1144157  14.842  11.749  12.038
  135PROX   H1344158  14.907  11.620  11.943
  135PROX    C244159  14.878  11.820  11.841
  135PROX   H2144160  14.821  11.911  11.869
  135PROX    C344161  14.842  11.792  11.696
  135PROX   H3144162  14.918  11.720  11.659
  135PROX   H3244163  14.740  11.748  11.690
  135PROX   H3344164  14.852  11.874  11.622
  136PROX    O144165  15.020  11.850  11.854
  136PROX    C144166  15.042  11.985  11.823
  136PROX   H1144167  14.993  12.014  11.727
  136PROX   H1344168  14.984  12.043  11.897
  136PROX    C244169  15.192  12.018  11.851
  136PROX   H2144170  15.226  11.950  11.932
  136PROX    C344171  15.207  12.167  11.904
  136PROX   H3144172  15.177  12.245  11.831
  136PROX   H3244173  15.164  12.180  12.006
  136PROX   H3344174  15.314  12.189  11.923
  137PROX    O144175  15.275  12.020  11.736
  137PROX    C144176  15.329  11.896  11.701
  137PROX   H1144177  15.388  11.861  11.788
  137PROX   H1344178  15.246  11.829  11.668
  137PROX    C244179  15.434  11.902  11.595
  137PROX   H2144180  15.400  11.944  11.498
  137PROX    C344181  15.480  11.762  11.555
  137PROX   H3144182  15.511  11.698  11.641
  137PROX   H3244183  15.405  11.709  11.493
  137PROX   H3344184  15.562  11.789  11.485
  138PROX    O144185  15.555  11.965  11.649
  138PROX    C144186  15.538  12.096  11.696
  138PROX   H1144187  15.467  12.157  11.637
  138PROX   H1344188  15.515  12.091  11.805
  138PROX    C244189  15.674  12.165  11.680
  138PROX   H2144190  15.689  12.195  11.574
  138PROX    C344191  15.796  12.075  11.720
  138PROX   H3144192  15.802  12.052  11.828
  138PROX   H3244193  15.814  11.982  11.662
  138PROX   H3344194  15.885  12.139  11.700
  139PROX    O144195  15.684  12.273  11.772
  139PROX    C144196  15.652  12.399  11.704
  139PROX   H1144197  15.747  12.451  11.680
  139PROX   H1344198  15.593  12.373  11.613
  139PROX    C244199  15.553  12.485  11.782
  139PROX   H2144200  15.451  12.441  11.785
  139PROX    C344201  15.525  12.616  11.705
  139PROX   H3144202  15.473  12.690  11.770
  139PROX   H3244203  15.617  12.668  11.669
  139PROX   H3344204  15.457  12.594  11.620
  140PROX    O144205  15.606  12.527  11.911
  140PROX    C144206  15.590  12.419  12.008
  140PROX   H1144207  15.521  12.341  11.970
  140PROX   H1344208  15.687  12.368  12.028
  140PROX    C244209  15.533  12.467  12.142
  140PROX   H2144210  15.438  12.518  12.116
  140PROX    C344211  15.625  12.561  12.219
  140PROX   H3144212  15.554  12.605  12.293
  140PROX   H3244213  15.713  12.522  12.274
  140PROX   H3344214  15.660  12.641  12.150
  141PROX    O144215  15.512  12.361  12.235
  141PROX    C144216  15.403  12.277  12.210
  141PROX   H1144217  15.321  12.305  12.279
  141PROX   H1344218  15.358  12.289  12.109
  141PROX    C244219  15.437  12.125  12.234
  141PROX   H2144220  15.468  12.106  12.339
  141PROX    C344221  15.550  12.077  12.137
  141PROX   H3144222  15.649  12.122  12.157
  141PROX   H3244223  15.565  11.969  12.159
  141PROX   H3344224  15.525  12.100  12.031
  142PROX    O144225  15.325  12.042  12.216
  142PROX    C144226  15.232  12.042  12.323
  142PROX   H1144227  15.296  12.013  12.409
  142PROX   H1344228  15.188  12.141  12.349
  142PROX    C244229  15.118  11.939  12.288
  142PROX   H2144230  15.072  11.970  12.192
  142PROX    C344231  15.001  11.952  12.384
  142PROX   H3144232  15.043  11.979  12.483
  142PROX   H3244233  14.941  12.038  12.348
  142PROX   H3344234  14.940  11.860  12.395
  143PROX    O144235  15.176  11.808  12.294
  143PROX    C144236  15.216  11.769  12.164
  143PROX   H1144237  15.131  11.772  12.092
  143PROX   H1344238  15.306  11.820  12.125
  143PROX    C244239  15.255  11.626  12.164
  143PROX   H2144240  15.177  11.568  12.218
  143PROX    C344241  15.385  11.602  12.242
  143PROX   H3144242  15.473  11.664  12.215
  143PROX   H3244243  15.355  11.613  12.348
  143PROX   H3344244  15.422  11.497  12.240
  144PROX    O144245  15.271  11.577  12.026
  144PROX    C144246  15.192  11.453  12.020
  144PROX   H1144247  15.240  11.383  12.092
  144PROX   H1344248  15.088  11.480  12.049
  144PROX    C244249  15.204  11.409  11.878
  144PROX   H2144250  15.309  11.404  11.843
  144PROX    C344251  15.125  11.495  11.776
  144PROX   H3144252  15.015  11.487  11.794
  144PROX   H3244253  15.157  11.600  11.789
  144PROX   H3344254  15.152  11.462  11.673
  145PROX    O144255  15.140  11.278  11.860
  145PROX    C144256  15.219  11.173  11.904
  145PROX   H1144257  15.267  11.196  12.002
  145PROX   H1344258  15.143  11.095  11.926
  145PROX    C244259  15.299  11.120  11.799
  145PROX   H2144260  15.361  11.201  11.755
  145PROX    C344261  15.220  11.053  11.684
  145PROX   H3144262  15.171  10.958  11.713
  145PROX   H3244263  15.142  11.127  11.658
  145PROX   H3344264  15.295  11.031  11.605
  146PROX    O144265  15.387  11.018  11.844
  146PROX    C144266  15.511  11.065  11.889
  146PROX   H1144267  15.557  11.121  11.805
  146PROX   H1344268  15.503  11.128  11.980
  146PROX    C244269  15.605  10.952  11.936
  146PROX   H2144270  15.704  11.000  11.947
  146PROX    C344271  15.610  10.846  11.828
  146PROX   H3144272  15.667  10.896  11.746
  146PROX   H3244273  15.673  10.763  11.867
  146PROX   H3344274  15.512  10.821  11.782
  147PROX    O144275  15.560  10.898  12.060
  147PROX    C144276  15.632  10.793  12.129
  147PROX   H1144277  15.670  10.715  12.059
  147PROX   H1344278  15.725  10.831  12.177
  147PROX    C244279  15.549  10.712  12.233
  147PROX   H2144280  15.520  10.789  12.308
  147PROX    C344281  15.632  10.601  12.301
  147PROX   H3144282  15.575  10.544  12.377
  147PROX   H3244283  15.671  10.530  12.226
  147PROX   H3344284  15.720  10.652  12.345
  148PROX    O144285  15.425  10.653  12.178
  148PROX    C144286  15.332  10.744  12.122
  148PROX   H1144287  15.340  10.845  12.167
  148PROX   H1344288  15.364  10.746  12.016
  148PROX    C244289  15.191  10.686  12.138
  148PROX   H2144290  15.165  10.698  12.245
  148PROX    C344291  15.161  10.545  12.096
  148PROX   H3144292  15.223  10.476  12.158
  148PROX   H3244293  15.053  10.525  12.114
  148PROX   H3344294  15.184  10.534  11.988
  149PROX    O144295  15.094  10.759  12.056
  149PROX    C144296  15.077  10.901  12.089
  149PROX   H1144297  15.177  10.948  12.101
  149PROX   H1344298  15.027  10.937  11.997
  149PROX    C244299  14.987  10.920  12.215
  149PROX   H2144300  14.911  10.840  12.216
  149PROX    C344301  14.908  11.049  12.202
  149PROX   H3144302  14.978  11.134  12.211
  149PROX   H3244303  14.861  11.059  12.101
  149PROX   H3344304  14.823  11.067  12.271
  150PROX    O144305  15.068  10.921  12.327
  150PROX    C144306  15.003  10.922  12.455
  150PROX   H1144307  14.936  11.010  12.461
  150PROX   H1344308  14.940  10.833  12.478
  150PROX    C244309  15.102  10.953  12.567
  150PROX   H2144310  15.142  11.055  12.545
  150PROX    C344311  15.217  10.853  12.573
  150PROX   H3144312  15.310  10.890  12.621
  150PROX   H3244313  15.182  10.756  12.614
  150PROX   H3344314  15.250  10.833  12.469
  151PROX    O144315  15.020  10.968  12.688
  151PROX    C144316  15.092  10.990  12.809
  151PROX   H1144317  15.120  10.888  12.842
  151PROX   H1344318  15.187  11.041  12.780
  151PROX    C244319  15.008  11.070  12.903
  151PROX   H2144320  14.924  11.002  12.932
  151PROX    C344321  14.948  11.199  12.845
  151PROX   H3144322  14.881  11.255  12.914
  151PROX   H3244323  15.031  11.266  12.814
  151PROX   H3344324  14.887  11.177  12.755
  152PROX    O144325  15.077  11.079  13.022
  152PROX    C144326  15.200  11.156  13.016
  152PROX   H1144327  15.273  11.087  12.969
  152PROX   H1344328  15.185  11.248  12.955
  152PROX    C244329  15.236  11.189  13.166
  152PROX   H2144330  15.232  11.091  13.219
  152PROX    C344331  15.143  11.300  13.224
  152PROX   H3144332  15.156  11.394  13.165
  152PROX   H3244333  15.040  11.266  13.201
  152PROX   H3344334  15.155  11.313  13.334
  153PROX    O144335  15.371  11.227  13.171
  153PROX    C144336  15.464  11.126  13.210
  153PROX   H1144337  15.456  11.112  13.320
  153PROX   H1344338  15.448  11.028  13.159
  153PROX    C244339  15.613  11.166  13.165
  153PROX   H2144340  15.607  11.205  13.061
  153PROX    C344341  15.712  11.047  13.159
  153PROX   H3144342  15.816  11.083  13.146
  153PROX   H3244343  15.718  10.988  13.253
  153PROX   H3344344  15.691  10.977  13.076
  154PROX    O144345  15.677  11.267  13.243
  154PROX    C144346  15.599  11.391  13.234
  154PROX   H1144347  15.495  11.372  13.269
  154PROX   H1344348  15.643  11.452  13.317
  154PROX    C244349  15.597  11.463  13.100
  154PROX   H2144350  15.558  11.412  13.009
  154PROX    C344351  15.739  11.528  13.057
  154PROX   H3144352  15.784  11.567  13.151
  154PROX   H3244353  15.815  11.464  13.006
  154PROX   H3344354  15.735  11.619  12.994
  155PROX    O144355  15.523  11.590  13.112
  155PROX    C144356  15.381  11.570  13.110
  155PROX   H1144357  15.350  11.466  13.130
  155PROX   H1344358  15.324  11.632  13.182
  155PROX    C244359  15.333  11.593  12.961
  155PROX   H2144360  15.408  11.665  12.923
  155PROX    C344361  15.200  11.656  12.966
  155PROX   H3144362  15.174  11.675  12.860
  155PROX   H3244363  15.131  11.580  13.008
  155PROX   H3344364  15.208  11.757  13.012
  156PROX    O144365  15.340  11.469  12.890
  156PROX    C144366  15.312  11.483  12.750
  156PROX   H1144367  15.201  11.477  12.744
  156PROX   H1344368  15.355  11.581  12.722
  156PROX    C244369  15.379  11.374  12.655
  156PROX   H2144370  15.333  11.277  12.680
  156PROX    C344371  15.532  11.379  12.677
  156PROX   H3144372  15.580  11.295  12.622
  156PROX   H3244373  15.580  11.471  12.638
  156PROX   H3344374  15.548  11.378  12.787
  157PROX    O144375  15.355  11.409  12.520
  157PROX    C144376  15.321  11.293  12.445
  157PROX   H1144377  15.229  11.252  12.493
  157PROX   H1344378  15.271  11.326  12.351
  157PROX    C244379  15.436  11.190  12.420
  157PROX   H2144380  15.531  11.243  12.399
  157PROX    C344381  15.404  11.105  12.289
  157PROX   H3144382  15.413  11.178  12.205
  157PROX   H3244383  15.484  11.028  12.282
  157PROX   H3344384  15.303  11.060  12.281
  158PROX    O144385  15.444  11.106  12.531
  158PROX    C144386  15.575  11.045  12.541
  158PROX   H1144387  15.586  10.974  12.456
  158PROX   H1344388  15.657  11.121  12.543
  158PROX    C244389  15.587  10.962  12.672
  158PROX   H2144390  15.528  10.868  12.669
  158PROX    C344391  15.528  11.035  12.797
  158PROX   H3144392  15.545  10.968  12.884
  158PROX   H3244393  15.590  11.122  12.823
  158PROX   H3344394  15.422  11.068  12.789
  159PROX    O144395  15.727  10.928  12.695
  159PROX    C144396  15.792  10.827  12.612
  159PROX   H1144397  15.830  10.749  12.681
  159PROX   H1344398  15.727  10.771  12.540
  159PROX    C244399  15.914  10.884  12.530
  159PROX   H2144400  15.962  10.801  12.473
  159PROX    C344401  16.023  10.931  12.633
  159PROX   H3144402  16.114  10.953  12.573
  159PROX   H3244403  15.984  11.017  12.692
  159PROX   H3344404  16.051  10.859  12.712
  160PROX    O144405  15.868  10.984  12.436
  160PROX    C144406  15.948  10.984  12.315
  160PROX   H1144407  16.047  11.027  12.344
  160PROX   H1344408  15.954  10.884  12.267
  160PROX    C244409  15.889  11.080  12.207
  160PROX   H2144410  15.794  11.034  12.171
  160PROX    C344411  15.992  11.083  12.091
  160PROX   H3144412  16.095  11.117  12.116
  160PROX   H3244413  16.016  10.981  12.053
  160PROX   H3344414  15.956  11.144  12.005
  161PROX    O144415  15.869  11.214  12.255
  161PROX    C144416  15.779  11.288  12.176
  161PROX   H1144417  15.793  11.262  12.069
  161PROX   H1344418  15.673  11.262  12.199
  161PROX    C244419  15.809  11.433  12.193
  161PROX   H2144420  15.919  11.452  12.189
  161PROX    C344421  15.763  11.480  12.335
  161PROX   H3144422  15.808  11.425  12.421
  161PROX   H3244423  15.785  11.587  12.354
  161PROX   H3344424  15.653  11.469  12.343
  162PROX    O144425  15.752  11.503  12.078
  162PROX    C144426  15.818  11.636  12.072
  162PROX   H1144427  15.787  11.701  12.156
  162PROX   H1344428  15.928  11.624  12.065
  162PROX    C244429  15.785  11.706  11.941
  162PROX   H2144430  15.854  11.793  11.937
  162PROX    C344431  15.640  11.761  11.916
  162PROX   H3144432  15.624  11.844  11.988
  162PROX   H3244433  15.625  11.798  11.812
  162PROX   H3344434  15.562  11.688  11.946
  163PROX    O144435  15.812  11.612  11.837
  163PROX    C144436  15.952  11.613  11.804
  163PROX   H1144437  15.992  11.715  11.824
  163PROX   H1344438  16.024  11.562  11.872
  163PROX    C244439  15.992  11.593  11.654
  163PROX   H2144440  16.103  11.582  11.654
  163PROX    C344441  15.936  11.708  11.564
  163PROX   H3144442  16.007  11.794  11.558
  163PROX   H3244443  15.922  11.661  11.465
  163PROX   H3344444  15.832  11.734  11.594
  164PROX    O144445  15.934  11.484  11.600
  164PROX    C144446  15.979  11.363  11.659
  164PROX   H1144447  16.080  11.328  11.627
  164PROX   H1344448  15.979  11.371  11.770
  164PROX    C244449  15.882  11.249  11.629
  164PROX   H2144450  15.863  11.238  11.521
  164PROX    C344451  15.751  11.278  11.697
  164PROX   H3144452  15.674  11.211  11.651
  164PROX   H3244453  15.761  11.283  11.807
  164PROX   H3344454  15.714  11.380  11.672
  165PROX    O144455  15.922  11.127  11.688
  165PROX    C144456  16.022  11.053  11.617
  165PROX   H1144457  15.977  11.022  11.520
  165PROX   H1344458  16.116  11.111  11.608
  165PROX    C244459  16.067  10.913  11.681
  165PROX   H2144460  16.127  10.875  11.596
  165PROX    C344461  15.942  10.829  11.715
  165PROX   H3144462  15.885  10.870  11.802
  165PROX   H3244463  15.882  10.825  11.621
  165PROX   H3344464  15.983  10.727  11.731
  166ETHO    O144465  16.149  10.923  11.801
  166ETHO    C144466  16.272  10.996  11.783
  166ETHO   H1144467  16.238  11.102  11.793
  166ETHO   H1344468  16.314  10.981  11.681
  166ETHO    C244469  16.375  10.977  11.899
  166ETHO   H2144470  16.334  10.989  12.002
  166ETHO   H2344471  16.447  11.060  11.882
  167ETHO    O144472  16.447  10.860  11.887
  167ETHO    C144473  16.562  10.856  11.974
  167ETHO   H1144474  16.636  10.935  11.947
  167ETHO   H1344475  16.540  10.867  12.082
  167ETHO    C244476  16.637  10.729  11.952
  167ETHO   H2144477  16.574  10.638  11.960
  167ETHO   H2344478  16.714  10.721  12.032
  168ETHO    O144479  16.692  10.720  11.814
  168ETHO    C144480  16.764  10.592  11.808
  168ETHO   H1144481  16.705  10.498  11.818
  168ETHO   H1344482  16.853  10.586  11.875
  168ETHO    C244483  16.825  10.582  11.668
  168ETHO   H2144484  16.907  10.656  11.655
  168ETHO   H2344485  16.751  10.602  11.588
  169ETHO    O144486  16.885  10.456  11.657
  169ETHO    C144487  16.896  10.414  11.527
  169ETHO   H1144488  16.797  10.391  11.483
  169ETHO   H1344489  16.943  10.492  11.464
  169ETHO    C244490  16.991  10.291  11.503
  169ETHO   H2144491  16.957  10.235  11.413
  169ETHO   H2344492  16.974  10.231  11.595
  170ETHO    O144493  17.130  10.324  11.491
  170ETHO    C144494  17.214  10.218  11.522
  170ETHO   H1144495  17.300  10.231  11.452
  170ETHO   H1344496  17.156  10.123  11.512
  170ETHO    C244497  17.275  10.216  11.660
  170ETHO   H2144498  17.341  10.127  11.665
  170ETHO   H2344499  17.200  10.221  11.741
  171ETHO    O144500  17.371  10.321  11.671
  171ETHO    C144501  17.414  10.333  11.803
  171ETHO   H1144502  17.435  10.442  11.812
  171ETHO   H1344503  17.338  10.300  11.876
  171ETHO    C244504  17.543  10.253  11.833
  171ETHO   H2144505  17.528  10.146  11.806
  171ETHO   H2344506  17.570  10.249  11.940
  172ETHO    O144507  17.658  10.312  11.773
  172ETHO    C144508  17.693  10.443  11.823
  172ETHO   H1144509  17.653  10.444  11.926
  172ETHO   H1344510  17.630  10.523  11.777
  172ETHO    C244511  17.842  10.480  11.822
  172ETHO   H2144512  17.850  10.591  11.820
  172ETHO   H2344513  17.888  10.446  11.727
  173ETHO    O144514  17.912  10.427  11.942
  173ETHO    C144515  17.921  10.285  11.934
  173ETHO   H1144516  17.819  10.241  11.934
  173ETHO   H1344517  17.988  10.250  11.853
  173ETHO    C244518  17.974  10.235  12.073
  173ETHO   H2144519  17.946  10.315  12.145
  173ETHO   H2344520  17.932  10.134  12.092
  174ETHO    O144521  18.115  10.224  12.067
  174ETHO    C144522  18.161  10.230  12.199
  174ETHO   H1144523  18.143  10.326  12.251
  174ETHO   H1344524  18.113  10.156  12.266
  174ETHO    C244525  18.311  10.204  12.220
  174ETHO   H2144526  18.333  10.248  12.320
  174ETHO   H2344527  18.374  10.266  12.153
  175ETHO    O144528  18.336  10.068  12.226
  175ETHO    C144529  18.471  10.026  12.234
  175ETHO   H1144530  18.534  10.106  12.191
  175ETHO   H1344531  18.508  10.009  12.337
  175ETHO    C244532  18.485   9.892  12.165
  175ETHO   H2144533  18.447   9.911  12.062
  175ETHO   H2344534  18.425   9.816  12.220
  176ETHO    O144535  18.614   9.834  12.165
  176ETHO    C144536  18.601   9.704  12.105
  176ETHO   H1144537  18.558   9.632  12.178
  176ETHO   H1344538  18.536   9.700  12.015
  176ETHO    C244539  18.747   9.668  12.066
  176ETHO   H2144540  18.760   9.559  12.052
  176ETHO   H2344541  18.812   9.689  12.154
  177ETHO    O144542  18.804   9.740  11.951
  177ETHO    C144543  18.948   9.715  11.941
  177ETHO   H1144544  18.959   9.605  11.944
  177ETHO   H1344545  18.992   9.768  12.028
  177ETHO    C244546  19.001   9.759  11.804
  177ETHO   H2144547  19.112   9.767  11.806
  177ETHO   H2344548  18.946   9.855  11.796
  178ETHO    O144549  18.958   9.663  11.707
  178ETHO    C144550  18.998   9.700  11.570
  178ETHO   H1144551  18.938   9.646  11.494
  178ETHO   H1344552  18.962   9.804  11.559
  178ETHO    C244553  19.157   9.686  11.540
  178ETHO   H2144554  19.185   9.579  11.537
  178ETHO   H2344555  19.230   9.734  11.609
  179ETHO    O144556  19.205   9.728  11.410
  179ETHO    C144557  19.212   9.873  11.397
  179ETHO   H1144558  19.241   9.917  11.495
  179ETHO   H1344559  19.108   9.911  11.382
  179ETHO    C244560  19.321   9.912  11.300
  179ETHO   H2144561  19.301  10.020  11.289
  179ETHO   H2344562  19.309   9.879  11.195
  180ETHO    O144563  19.456   9.900  11.345
  180ETHO    C144564  19.497   9.758  11.358
  180ETHO   H1144565  19.456   9.716  11.452
  180ETHO   H1344566  19.460   9.698  11.273
  180ETHO    C244567  19.649   9.755  11.361
  180ETHO   H2144568  19.689   9.812  11.274
  180ETHO   H2344569  19.687   9.651  11.357
  181ETHO    O144570  19.701   9.823  11.473
  181ETHO    C144571  19.843   9.833  11.466
  181ETHO   H1144572  19.868   9.906  11.386
  181ETHO   H1344573  19.892   9.738  11.436
  181ETHO    C244574  19.896   9.874  11.617
  181ETHO   H2144575  19.849   9.798  11.683
  181ETHO   H2344576  19.864   9.980  11.628
  182ETHO    O144577  20.036   9.881  11.634
  182ETHO    C144578  20.079   9.869  11.771
  182ETHO   H1144579  20.050   9.952  11.839
  182ETHO   H1344580  20.037   9.778  11.818
  182ETHO    C244581  20.230   9.856  11.764
  182ETHO   H2144582  20.268   9.829  11.865
  182ETHO   H2344583  20.264   9.958  11.734
  183ETHO    O144584  20.277   9.763  11.672
  183ETHO    C144585  20.406   9.794  11.632
  183ETHO   H1144586  20.460   9.842  11.717
  183ETHO   H1344587  20.413   9.848  11.535
  183ETHO    C244588  20.472   9.650  11.617
  183ETHO   H2144589  20.545   9.668  11.535
  183ETHO   H2344590  20.405   9.574  11.572
  184ETHO    O144591  20.545   9.605  11.734
  184ETHO    C144592  20.582   9.468  11.728
  184ETHO   H1144593  20.491   9.405  11.739
  184ETHO   H1344594  20.631   9.439  11.633
  184ETHO    C244595  20.664   9.422  11.854
  184ETHO   H2144596  20.636   9.317  11.877
  184ETHO   H2344597  20.646   9.495  11.936
  185ETHO    O144598  20.805   9.446  11.819
  185ETHO    C144599  20.896   9.394  11.913
  185ETHO   H1144600  20.886   9.451  12.008
  185ETHO   H1344601  20.859   9.295  11.946
  185ETHO    C244602  21.051   9.399  11.885
  185ETHO   H2144603  21.108   9.402  11.980
  185ETHO   H2344604  21.069   9.485  11.817
  186ETHO    O144605  21.078   9.273  11.824
  186ETHO    C144606  21.188   9.265  11.732
  186ETHO   H1144607  21.169   9.326  11.641
  186ETHO   H1344608  21.276   9.311  11.782
  186ETHO    C244609  21.205   9.117  11.696
  186ETHO   H2144610  21.220   9.069  11.795
  186ETHO   H2344611  21.299   9.104  11.639
  187ETHO    O144612  21.088   9.053  11.639
  187ETHO    C144613  21.115   9.018  11.503
  187ETHO   H1144614  21.126   9.115  11.449
  187ETHO   H1344615  21.209   8.962  11.485
  187ETHO    C244616  21.002   8.933  11.458
  187ETHO   H2144617  20.987   8.851  11.531
  187ETHO   H2344618  21.026   8.890  11.358
  188ETHO    O144619  20.883   9.009  11.447
  188ETHO    C144620  20.859   9.055  11.316
  188ETHO   H1144621  20.838   8.970  11.247
  188ETHO   H1344622  20.959   9.091  11.285
  188ETHO    C244623  20.765   9.177  11.292
  188ETHO   H2144624  20.785   9.212  11.189
  188ETHO   H2344625  20.782   9.259  11.366
  189ETHO    O144626  20.627   9.136  11.296
  189ETHO    C144627  20.533   9.239  11.272
  189ETHO   H1144628  20.575   9.336  11.307
  189ETHO   H1344629  20.510   9.240  11.164
  189ETHO    C244630  20.399   9.206  11.341
  189ETHO   H2144631  20.392   9.096  11.354
  189ETHO   H2344632  20.315   9.245  11.280
  190ETHO    O144633  20.387   9.278  11.462
  190ETHO    C144634  20.248   9.312  11.488
  190ETHO   H1144635  20.177   9.234  11.452
  190ETHO   H1344636  20.221   9.399  11.424
  190ETHO    C244637  20.217   9.332  11.642
  190ETHO   H2144638  20.116   9.376  11.655
  190ETHO   H2344639  20.294   9.409  11.661
  191ETHO    O144640  20.231   9.205  11.710
  191ETHO    C144641  20.179   9.210  11.841
  191ETHO   H1144642  20.222   9.304  11.882
  191ETHO   H1344643  20.069   9.224  11.836
  191ETHO    C244644  20.211   9.088  11.923
  191ETHO   H2144645  20.314   9.047  11.915
  191ETHO   H2344646  20.162   8.999  11.879
  192ETHO    O144647  20.177   9.099  12.060
  192ETHO    C144648  20.184   8.975  12.123
  192ETHO   H1144649  20.291   8.945  12.134
  192ETHO   H1344650  20.142   8.893  12.062
  192ETHO    C244651  20.124   8.991  12.263
  192ETHO   H2144652  20.186   9.052  12.332
  192ETHO   H2344653  20.113   8.890  12.308
  193ETHO    O144654  19.995   9.044  12.252
  193ETHO    C144655  19.946   9.053  12.386
  193ETHO   H1144656  19.923   8.955  12.432
  193ETHO   H1344657  20.021   9.100  12.453
  193ETHO    C244658  19.820   9.138  12.372
  193ETHO   H2144659  19.743   9.104  12.300
  193ETHO   H2344660  19.847   9.236  12.326
  194ETHO    O144661  19.760   9.156  12.494
  194ETHO    C144662  19.634   9.215  12.473
  194ETHO   H1144663  19.627   9.269  12.376
  194ETHO   H1344664  19.631   9.292  12.552
  194ETHO    C244665  19.512   9.126  12.489
  194ETHO   H2144666  19.501   9.069  12.394
  194ETHO   H2344667  19.431   9.201  12.503
  195ETHO    O144668  19.530   9.035  12.595
  195ETHO    C144669  19.422   8.948  12.608
  195ETHO   H1144670  19.394   8.913  12.506
  195ETHO   H1344671  19.462   8.857  12.655
  195ETHO    C244672  19.293   8.980  12.684
  195ETHO   H2144673  19.229   8.891  12.665
  195ETHO   H2344674  19.240   9.069  12.644
  196ETHO    O144675  19.331   8.994  12.818
  196ETHO    C144676  19.228   9.021  12.913
  196ETHO   H1144677  19.175   9.118  12.896
  196ETHO   H1344678  19.157   8.938  12.892
  196ETHO    C244679  19.270   9.014  13.057
  196ETHO   H2144680  19.341   8.929  13.062
  196ETHO   H2344681  19.191   8.980  13.126
  197ETHO    O144682  19.329   9.137  13.100
  197ETHO    C144683  19.230   9.236  13.135
  197ETHO   H1144684  19.152   9.246  13.056
  197ETHO   H1344685  19.184   9.207  13.231
  197ETHO    C244686  19.295   9.372  13.144
  197ETHO   H2144687  19.222   9.454  13.131
  197ETHO   H2344688  19.361   9.388  13.056
  198ETHO    O144689  19.375   9.386  13.261
  198ETHO    C144690  19.284   9.428  13.363
  198ETHO   H1144691  19.224   9.514  13.327
  198ETHO   H1344692  19.229   9.334  13.388
  198ETHO    C244693  19.388   9.469  13.472
  198ETHO   H2144694  19.452   9.382  13.497
  198ETHO   H2344695  19.338   9.498  13.567
  199ETHO    O144696  19.464   9.597  13.438
  199ETHO    C144697  19.538   9.646  13.551
  199ETHO   H1144698  19.616   9.575  13.586
  199ETHO   H1344699  19.468   9.677  13.631
  199ETHO    C244700  19.606   9.776  13.500
  199ETHO   H2144701  19.690   9.757  13.430
  199ETHO   H2344702  19.646   9.830  13.589
  200ETHO    O144703  19.512   9.855  13.425
  200ETHO    C144704  19.554   9.985  13.398
  200ETHO   H1144705  19.640  10.010  13.464
  200ETHO   H1344706  19.601   9.993  13.297
  200ETHO    C244707  19.430  10.080  13.401
  200ETHO   H2144708  19.341  10.016  13.385
  200ETHO   H2344709  19.441  10.158  13.323
  201ETHO    O144710  19.423  10.131  13.528
  201ETHO    C144711  19.325  10.070  13.611
  201ETHO   H1144712  19.353   9.963  13.608
  201ETHO   H1344713  19.224  10.075  13.565
  201ETHO    C244714  19.324  10.134  13.748
  201ETHO   H2144715  19.235  10.096  13.803
  201ETHO   H2344716  19.301  10.242  13.737
  202ETHO    O144717  19.443  10.119  13.826
  202ETHO    C144718  19.452  10.217  13.930
  202ETHO   H1144719  19.473  10.318  13.891
  202ETHO   H1344720  19.353  10.220  13.980
  202ETHO    C244721  19.565  10.184  14.023
  202ETHO   H2144722  19.553  10.253  14.109
  202ETHO   H2344723  19.662  10.189  13.970
  203ETHO    O144724  19.537  10.063  14.088
  203ETHO    C144725  19.648  10.013  14.162
  203ETHO   H1144726  19.685  10.097  14.225
  203ETHO   H1344727  19.734   9.981  14.098
  203ETHO    C244728  19.609   9.895  14.257
  203ETHO   H2144729  19.534   9.925  14.333
  203ETHO   H2344730  19.696   9.867  14.322
  204ETHO    O144731  19.571   9.787  14.181
  204ETHO    C144732  19.447   9.735  14.232
  204ETHO   H1144733  19.467   9.714  14.340
  204ETHO   H1344734  19.378   9.822  14.226
  204ETHO    C244735  19.401   9.611  14.168
  204ETHO   H2144736  19.372   9.630  14.063
  204ETHO   H2344737  19.309   9.579  14.221
  205ETHO    O144738  19.497   9.502  14.162
  205ETHO    C144739  19.436   9.372  14.149
  205ETHO   H1144740  19.402   9.372  14.043
  205ETHO   H1344741  19.349   9.349  14.214
  205ETHO    C244742  19.547   9.270  14.175
  205ETHO   H2144743  19.637   9.311  14.124
  205ETHO   H2344744  19.523   9.170  14.132
  206ETHO    O144745  19.563   9.256  14.321
  206ETHO    C144746  19.470   9.168  14.381
  206ETHO   H1144747  19.366   9.182  14.344
  206ETHO   H1344748  19.494   9.061  14.362
  206ETHO    C244749  19.455   9.189  14.533
  206ETHO   H2144750  19.421   9.094  14.578
  206ETHO   H2344751  19.559   9.201  14.569
  207ETHO    O144752  19.365   9.291  14.572
  207ETHO    C144753  19.432   9.414  14.559
  207ETHO   H1144754  19.447   9.442  14.453
  207ETHO   H1344755  19.533   9.402  14.604
  207ETHO    C244756  19.372   9.532  14.631
  207ETHO   H2144757  19.445   9.616  14.633
  207ETHO   H2344758  19.351   9.502  14.736
  208ETHO    O144759  19.261   9.581  14.562
  208ETHO    C144760  19.220   9.700  14.626
  208ETHO   H1144761  19.155   9.675  14.712
  208ETHO   H1344762  19.308   9.758  14.661
  208ETHO    C244763  19.130   9.780  14.530
  208ETHO   H2144764  19.077   9.864  14.580
  208ETHO   H2344765  19.056   9.707  14.489
  209ETHO    O144766  19.202   9.846  14.424
  209ETHO    C144767  19.122   9.938  14.333
  209ETHO   H1144768  19.185   9.994  14.261
  209ETHO   H1344769  19.077  10.012  14.402
  209ETHO    C244770  19.023   9.859  14.245
  209ETHO   H2144771  18.965   9.932  14.184
  209ETHO   H2344772  18.948   9.810  14.311
  210ETHO    O144773  19.077   9.772  14.149
  210ETHO    C144774  18.977   9.707  14.080
  210ETHO   H1144775  18.902   9.668  14.153
  210ETHO   H1344776  18.924   9.770  14.006
  210ETHO    C244777  19.037   9.585  14.001
  210ETHO   H2144778  18.949   9.527  13.964
  210ETHO   H2344779  19.100   9.530  14.073
  211ETHO    O144780  19.117   9.632  13.895
  211ETHO    C144781  19.181   9.523  13.832
  211ETHO   H1144782  19.272   9.575  13.796
  211ETHO   H1344783  19.197   9.446  13.910
  211ETHO    C244784  19.097   9.480  13.716
  211ETHO   H2144785  19.159   9.417  13.648
  211ETHO   H2344786  19.066   9.567  13.653
  212ETHO    O144787  18.977   9.415  13.763
  212ETHO    C144788  19.016   9.280  13.784
  212ETHO   H1144789  19.057   9.236  13.690
  212ETHO   H1344790  19.092   9.265  13.864
  212ETHO    C244791  18.882   9.214  13.830
  212ETHO   H2144792  18.893   9.104  13.823
  212ETHO   H2344793  18.809   9.253  13.755
  213ETHO    O144794  18.852   9.257  13.957
  213ETHO    C144795  18.769   9.166  14.034
  213ETHO   H1144796  18.698   9.109  13.972
  213ETHO   H1344797  18.829   9.080  14.071
  213ETHO    C244798  18.693   9.239  14.155
  213ETHO   H2144799  18.773   9.284  14.218
  213ETHO   H2344800  18.651   9.156  14.216
  214ETHO    O144801  18.594   9.336  14.123
  214ETHO    C144802  18.479   9.274  14.067
  214ETHO   H1144803  18.440   9.197  14.137
  214ETHO   H1344804  18.514   9.220  13.977
  214ETHO    C244805  18.372   9.367  14.025
  214ETHO   H2144806  18.414   9.442  13.954
  214ETHO   H2344807  18.332   9.419  14.115
  215ETHO    O144808  18.272   9.305  13.951
  215ETHO    C144809  18.160   9.270  14.034
  215ETHO   H1144810  18.198   9.202  14.113
  215ETHO   H1344811  18.120   9.366  14.074
  215ETHO    C244812  18.036   9.211  13.968
  215ETHO   H2144813  17.968   9.191  14.054
  215ETHO   H2344814  18.072   9.116  13.923
  216ETHO    O144815  17.971   9.317  13.895
  216ETHO    C144816  17.892   9.263  13.795
  216ETHO   H1144817  17.824   9.194  13.850
  216ETHO   H1344818  17.951   9.201  13.724
  216ETHO    C244819  17.842   9.386  13.718
  216ETHO   H2144820  17.789   9.449  13.793
  216ETHO   H2344821  17.751   9.360  13.658
  217ETHO    O144822  17.935   9.447  13.634
  217ETHO    C144823  17.894   9.581  13.605
  217ETHO   H1144824  17.793   9.583  13.559
  217ETHO   H1344825  17.881   9.642  13.697
  217ETHO    C244826  17.989   9.673  13.515
  217ETHO   H2144827  18.099   9.661  13.526
  217ETHO   H2344828  17.966   9.778  13.543
  218ETHO    O144829  17.961   9.640  13.380
  218ETHO    C144830  17.987   9.752  13.290
  218ETHO   H1144831  18.096   9.765  13.304
  218ETHO   H1344832  17.933   9.842  13.327
  218ETHO    C244833  17.949   9.720  13.145
  218ETHO   H2144834  17.947   9.810  13.079
  218ETHO   H2344835  17.844   9.683  13.142
  219ETHO    O144836  18.048   9.632  13.101
  219ETHO    C144837  18.027   9.575  12.970
  219ETHO   H1144838  18.119   9.516  12.951
  219ETHO   H1344839  17.947   9.499  12.975
  219ETHO    C244840  18.017   9.672  12.846
  219ETHO   H2144841  17.993   9.608  12.758
  219ETHO   H2344842  18.115   9.724  12.841
  220ETHO    O144843  17.913   9.773  12.847
  220ETHO    C144844  17.913   9.839  12.718
  220ETHO   H1144845  17.818   9.896  12.707
  220ETHO   H1344846  17.914   9.766  12.634
  220ETHO    C244847  18.028   9.933  12.676
  220ETHO   H2144848  18.056  10.005  12.757
  220ETHO   H2344849  17.996   9.994  12.588
  221ETHO    O144850  18.145   9.869  12.646
  221ETHO    C144851  18.258   9.952  12.653
  221ETHO   H1144852  18.326   9.902  12.580
  221ETHO   H1344853  18.238  10.056  12.622
  221ETHO    C244854  18.323   9.948  12.786
  221ETHO   H2144855  18.430   9.975  12.772
  221ETHO   H2344856  18.309   9.843  12.821
  222ETHO    O144857  18.264  10.040  12.876
  222ETHO    C144858  18.330  10.040  13.004
  222ETHO   H1144859  18.375   9.940  13.023
  222ETHO   H1344860  18.416  10.110  13.001
  222ETHO    C244861  18.241  10.081  13.129
  222ETHO   H2144862  18.296  10.063  13.223
  222ETHO   H2344863  18.152  10.014  13.128
  223ETHO    O144864  18.210  10.220  13.123
  223ETHO    C144865  18.071  10.241  13.158
  223ETHO   H1144866  18.016  10.181  13.083
  223ETHO   H1344867  18.057  10.198  13.260
  223ETHO    C244868  18.026  10.389  13.166
  223ETHO   H2144869  18.111  10.451  13.202
  223ETHO   H2344870  17.946  10.391  13.243
  224ETHO    O144871  17.982  10.439  13.041
  224ETHO    C144872  17.942  10.575  13.060
  224ETHO   H1144873  17.904  10.587  13.163
  224ETHO   H1344874  18.027  10.643  13.036
  224ETHO    C244875  17.828  10.602  12.953
  224ETHO   H2144876  17.753  10.519  12.953
  224ETHO   H2344877  17.875  10.604  12.852
  225ETHO    O144878  17.769  10.724  12.983
  225ETHO    C144879  17.731  10.794  12.864
  225ETHO   H1144880  17.697  10.722  12.787
  225ETHO   H1344881  17.829  10.831  12.827
  225ETHO    C244882  17.636  10.917  12.875
  225ETHO   H2144883  17.630  10.994  12.795
  225ETHO   H2344884  17.674  10.978  12.960
  226ETHO    O144885  17.502  10.886  12.914
  226ETHO    C144886  17.419  11.003  12.943
  226ETHO   H1144887  17.342  10.964  13.013
  226ETHO   H1344888  17.474  11.080  13.001
  226ETHO    C244889  17.363  11.070  12.812
  226ETHO   H2144890  17.279  11.133  12.848
  226ETHO   H2344891  17.323  10.986  12.751
  227ETHO    O144892  17.473  11.144  12.760
  227ETHO    C144893  17.436  11.197  12.633
  227ETHO   H1144894  17.334  11.240  12.639
  227ETHO   H1344895  17.441  11.116  12.557
  227ETHO    C244896  17.547  11.302  12.591
  227ETHO   H2144897  17.549  11.394  12.654
  227ETHO   H2344898  17.512  11.342  12.493
  228ETHO    O144899  17.679  11.258  12.565
  228ETHO    C144900  17.772  11.365  12.547
  228ETHO   H1144901  17.753  11.408  12.446
  228ETHO   H1344902  17.742  11.436  12.626
  228ETHO    C244903  17.917  11.316  12.541
  228ETHO   H2144904  17.923  11.206  12.561
  228ETHO   H2344905  17.983  11.368  12.614
  229ETHO    O144906  17.980  11.327  12.416
  229ETHO    C144907  18.121  11.288  12.415
  229ETHO   H1144908  18.170  11.326  12.507
  229ETHO   H1344909  18.165  11.343  12.330
  229ETHO    C244910  18.153  11.136  12.384
  229ETHO   H2144911  18.256  11.120  12.346
  229ETHO   H2344912  18.082  11.099  12.307
  230ETHO    O144913  18.115  11.049  12.484
  230ETHO    C144914  18.204  11.052  12.588
  230ETHO   H1144915  18.308  11.030  12.554
  230ETHO   H1344916  18.198  11.152  12.636
  230ETHO    C244917  18.163  10.952  12.698
  230ETHO   H2144918  18.065  10.987  12.736
  230ETHO   H2344919  18.230  10.977  12.783
  231ETHO    O144920  18.150  10.812  12.661
  231ETHO    C144921  18.281  10.753  12.647
  231ETHO   H1144922  18.337  10.817  12.576
  231ETHO   H1344923  18.244  10.657  12.604
  231ETHO    C244924  18.354  10.726  12.780
  231ETHO   H2144925  18.440  10.658  12.761
  231ETHO   H2344926  18.286  10.678  12.854
  232ETHO    O144927  18.420  10.843  12.836
  232ETHO    C144928  18.541  10.877  12.761
  232ETHO   H1144929  18.615  10.812  12.813
  232ETHO   H1344930  18.536  10.844  12.655
  232ETHO    C244931  18.587  11.022  12.773
  232ETHO   H2144932  18.494  11.082  12.764
  232ETHO   H2344933  18.656  11.063  12.696
  233ETHO    O144934  18.650  11.055  12.900
  233ETHO    C144935  18.665  11.188  12.915
  233ETHO   H1144936  18.705  11.232  12.822
  233ETHO   H1344937  18.570  11.240  12.943
  233ETHO    C244938  18.772  11.223  13.020
  233ETHO   H2144939  18.747  11.174  13.117
  233ETHO   H2344940  18.775  11.330  13.049
  234ETHO    O144941  18.902  11.178  12.972
  234ETHO    C144942  19.008  11.204  13.068
  234ETHO   H1144943  18.988  11.298  13.125
  234ETHO   H1344944  19.005  11.121  13.141
  234ETHO    C244945  19.143  11.214  12.998
  234ETHO   H2144946  19.214  11.290  13.035
  234ETHO   H2344947  19.131  11.255  12.895
  235ETHO    O144948  19.205  11.087  12.986
  235ETHO    C144949  19.348  11.093  12.960
  235ETHO   H1144950  19.369  11.091  12.851
  235ETHO   H1344951  19.388  11.189  12.998
  235ETHO    C244952  19.416  10.967  13.024
  235ETHO   H2144953  19.517  10.961  12.979
  235ETHO   H2344954  19.351  10.880  13.001
  236ETHO    O144955  19.422  10.971  13.169
  236ETHO    C144956  19.506  10.867  13.231
  236ETHO   H1144957  19.610  10.870  13.193
  236ETHO   H1344958  19.467  10.767  13.202
  236ETHO    C244959  19.503  10.889  13.384
  236ETHO   H2144960  19.560  10.980  13.412
  236ETHO   H2344961  19.557  10.808  13.438
  237ETHO    O144962  19.372  10.889  13.439
  237ETHO    C144963  19.377  10.925  13.571
  237ETHO   H1144964  19.417  11.028  13.574
  237ETHO   H1344965  19.271  10.929  13.605
  237ETHO    C244966  19.438  10.825  13.670
  237ETHO   H2144967  19.382  10.729  13.660
  237ETHO   H2344968  19.429  10.867  13.772
  238ETHO    O144969  19.573  10.781  13.659
  238ETHO    C144970  19.660  10.882  13.728
  238ETHO   H1144971  19.679  10.856  13.834
  238ETHO   H1344972  19.613  10.982  13.722
  238ETHO    C244973  19.796  10.886  13.658
  238ETHO   H2144974  19.786  10.878  13.547
  238ETHO   H2344975  19.841  10.793  13.697
  239ETHO    O144976  19.875  10.995  13.699
  239ETHO    C144977  19.867  11.100  13.604
  239ETHO   H1144978  19.941  11.096  13.521
  239ETHO   H1344979  19.767  11.106  13.557
  239ETHO    C244980  19.900  11.244  13.653
  239ETHO   H2144981  19.872  11.313  13.571
  239ETHO   H2344982  19.843  11.274  13.744
  240ETHO    O144983  20.038  11.250  13.670
  240ETHO    C144984  20.082  11.359  13.744
  240ETHO   H1144985  20.017  11.449  13.738
  240ETHO   H1344986  20.184  11.390  13.715
  240ETHO    C244987  20.078  11.319  13.893
  240ETHO   H2144988  19.974  11.296  13.923
  240ETHO   H2344989  20.123  11.395  13.960
  241ETHO    O144990  20.150  11.204  13.910
  241ETHO    C144991  20.290  11.230  13.922
  241ETHO   H1144992  20.319  11.267  13.821
  241ETHO   H1344993  20.304  11.313  13.995
  241ETHO    C244994  20.382  11.114  13.968
  241ETHO   H2144995  20.357  11.014  13.926
  241ETHO   H2344996  20.369  11.101  14.078
  242ETHO    O144997  20.517  11.151  13.947
  242ETHO    C144998  20.599  11.045  13.974
  242ETHO   H1144999  20.593  10.962  13.901
  242ETHO   H1345000  20.575  11.005  14.075
  242ETHO    C245001  20.741  11.107  13.987
  242ETHO   H2145002  20.746  11.189  13.912
  242ETHO   H2345003  20.821  11.034  13.959
  243ETHO    O145004  20.754  11.159  14.118
  243ETHO    C145005  20.880  11.224  14.132
  243ETHO   H1145006  20.919  11.205  14.234
  243ETHO   H1345007  20.953  11.167  14.070
  243ETHO    C245008  20.878  11.366  14.103
  243ETHO   H2145009  20.976  11.414  14.123
  243ETHO   H2345010  20.808  11.420  14.172
  244ETHO    O145011  20.833  11.411  13.978
  244ETHO    C145012  20.940  11.423  13.881
  244ETHO   H1145013  21.009  11.337  13.886
  244ETHO   H1345014  20.999  11.512  13.910
  244ETHO    C245015  20.884  11.426  13.735
  244ETHO   H2145016  20.951  11.464  13.655
  244ETHO   H2345017  20.792  11.489  13.728
  245ETHO    O145018  20.861  11.290  13.700
  245ETHO    C145019  20.790  11.277  13.582
  245ETHO   H1145020  20.691  11.327  13.584
  245ETHO   H1345021  20.847  11.310  13.492
  245ETHO    C245022  20.780  11.123  13.581
  245ETHO   H2145023  20.689  11.098  13.522
  245ETHO   H2345024  20.767  11.081  13.683
  246ETHO    O145025  20.887  11.056  13.510
  246ETHO    C145026  21.003  11.018  13.589
  246ETHO   H1145027  20.977  10.939  13.662
  246ETHO   H1345028  21.038  11.106  13.648
  246ETHO    C245029  21.129  10.971  13.511
  246ETHO   H2145030  21.196  10.922  13.585
  246ETHO   H2345031  21.187  11.057  13.470
  247ETHO    O145032  21.101  10.878  13.408
  247ETHO    C145033  21.215  10.851  13.329
  247ETHO   H1145034  21.240  10.943  13.274
  247ETHO   H1345035  21.301  10.810  13.387
  247ETHO    C245036  21.177  10.744  13.219
  247ETHO   H2145037  21.088  10.770  13.159
  247ETHO   H2345038  21.261  10.745  13.145
  248ETHO    O145039  21.158  10.613  13.275
  248ETHO    C145040  21.131  10.522  13.174
  248ETHO   H1145041  21.051  10.567  13.112
  248ETHO   H1345042  21.212  10.515  13.098
  248ETHO    C245043  21.101  10.385  13.232
  248ETHO   H2145044  21.187  10.349  13.293
  248ETHO   H2345045  21.079  10.313  13.150
  249ETHO    O145046  20.980  10.403  13.305
  249ETHO    C145047  20.938  10.284  13.365
  249ETHO   H1145048  20.834  10.288  13.402
  249ETHO   H1345049  20.940  10.198  13.295
  249ETHO    C245050  21.025  10.249  13.490
  249ETHO   H2145051  20.959  10.188  13.556
  249ETHO   H2345052  21.045  10.347  13.537
  250ETHO    O145053  21.145  10.179  13.470
  250ETHO    C145054  21.220  10.161  13.593
  250ETHO   H1145055  21.284  10.252  13.598
  250ETHO   H1345056  21.158  10.154  13.685
  250ETHO    C245057  21.319  10.040  13.589
  250ETHO   H2145058  21.392  10.067  13.668
  250ETHO   H2345059  21.360  10.024  13.487
  251ETHO    O145060  21.265   9.924  13.640
  251ETHO    C145061  21.354   9.813  13.657
  251ETHO   H1145062  21.422   9.846  13.738
  251ETHO   H1345063  21.414   9.776  13.571
  251ETHO    C245064  21.288   9.681  13.711
  251ETHO   H2145065  21.191   9.705  13.761
  251ETHO   H2345066  21.355   9.646  13.792
  252ETHO    O145067  21.253   9.602  13.595
  252ETHO    C145068  21.154   9.662  13.516
  252ETHO   H1145069  21.071   9.704  13.577
  252ETHO   H1345070  21.205   9.744  13.459
  252ETHO    C245071  21.094   9.550  13.422
  252ETHO   H2145072  21.180   9.506  13.367
  252ETHO   H2345073  21.030   9.601  13.347
  253ETHO    O145074  21.027   9.441  13.482
  253ETHO    C145075  20.984   9.356  13.374
  253ETHO   H1145076  21.073   9.321  13.319
  253ETHO   H1345077  20.919   9.414  13.306
  253ETHO    C245078  20.904   9.240  13.427
  253ETHO   H2145079  20.942   9.192  13.520
  253ETHO   H2345080  20.925   9.162  13.352
  254ETHO    O145081  20.767   9.274  13.437
  254ETHO    C145082  20.698   9.150  13.461
  254ETHO   H1145083  20.701   9.089  13.368
  254ETHO   H1345084  20.753   9.107  13.547
  254ETHO    C245085  20.554   9.172  13.500
  254ETHO   H2145086  20.495   9.083  13.531
  254ETHO   H2345087  20.500   9.223  13.417
  255ETHO    O145088  20.550   9.254  13.618
  255ETHO    C145089  20.418   9.304  13.629
  255ETHO   H1145090  20.351   9.220  13.656
  255ETHO   H1345091  20.374   9.351  13.539
  255ETHO    C245092  20.436   9.398  13.747
  255ETHO   H2145093  20.511   9.476  13.720
  255ETHO   H2345094  20.488   9.343  13.828
  256ETHO    O145095  20.319   9.445  13.804
  256ETHO    C145096  20.244   9.526  13.712
  256ETHO   H1145097  20.285   9.627  13.690
  256ETHO   H1345098  20.232   9.487  13.609
  256ETHO    C245099  20.096   9.548  13.756
  256ETHO   H2145100  20.095   9.590  13.859
  256ETHO   H2345101  20.035   9.455  13.758
  257ETHO    O145102  20.024   9.639  13.675
  257ETHO    C145103  19.896   9.672  13.727
  257ETHO   H1145104  19.872   9.595  13.804
  257ETHO   H1345105  19.825   9.680  13.641
  257ETHO    C245106  19.880   9.807  13.807
  257ETHO   H2145107  19.981   9.821  13.850
  257ETHO   H2345108  19.788   9.803  13.869
  258ETHO    O145109  19.864   9.906  13.713
  258ETHO    C145110  19.856  10.035  13.776
  258ETHO   H1145111  19.768  10.036  13.843
  258ETHO   H1345112  19.945  10.048  13.841
  258ETHO    C245113  19.850  10.164  13.686
  258ETHO   H2145114  19.865  10.250  13.755
  258ETHO   H2345115  19.750  10.165  13.639
  259ETHO    O145116  19.945  10.175  13.585
  259ETHO    C145117  19.942  10.302  13.530
  259ETHO   H1145118  19.855  10.303  13.461
  259ETHO   H1345119  19.923  10.379  13.608
  259ETHO    C245120  20.073  10.339  13.462
  259ETHO   H2145121  20.045  10.415  13.386
  259ETHO   H2345122  20.116  10.251  13.409
  260ETHO    O145123  20.182  10.377  13.549
  260ETHO    C145124  20.297  10.402  13.468
  260ETHO   H1145125  20.332  10.307  13.421
  260ETHO   H1345126  20.261  10.471  13.389
  260ETHO    C245127  20.419  10.469  13.536
  260ETHO   H2145128  20.503  10.472  13.463
  260ETHO   H2345129  20.457  10.423  13.630
  261ETHO    O145130  20.376  10.596  13.571
  261ETHO    C145131  20.467  10.682  13.629
  261ETHO   H1145132  20.528  10.644  13.714
  261ETHO   H1345133  20.550  10.694  13.557
  261ETHO    C245134  20.415  10.826  13.670
  261ETHO   H2145135  20.466  10.862  13.762
  261ETHO   H2345136  20.308  10.811  13.696
  262ETHO    O145137  20.438  10.912  13.553
  262ETHO    C145138  20.387  11.038  13.583
  262ETHO   H1145139  20.465  11.088  13.644
  262ETHO   H1345140  20.295  11.037  13.644
  262ETHO    C245141  20.364  11.115  13.457
  262ETHO   H2145142  20.457  11.110  13.396
  262ETHO   H2345143  20.338  11.220  13.479
  263ETHO    O145144  20.269  11.079  13.363
  263ETHO    C145145  20.265  11.171  13.249
  263ETHO   H1145146  20.270  11.275  13.287
  263ETHO   H1345147  20.165  11.157  13.202
  263ETHO    C245148  20.370  11.132  13.133
  263ETHO   H2145149  20.327  11.200  13.057
  263ETHO   H2345150  20.353  11.022  13.121
  264ETHO    O145151  20.496  11.166  13.169
  264ETHO    C145152  20.583  11.188  13.062
  264ETHO   H1145153  20.524  11.243  12.985
  264ETHO   H1345154  20.609  11.089  13.020
  264ETHO    C245155  20.708  11.274  13.091
  264ETHO   H2145156  20.790  11.245  13.021
  264ETHO   H2345157  20.737  11.237  13.192
  265ETHO    O145158  20.683  11.415  13.076
  265ETHO    C145159  20.773  11.493  13.155
  265ETHO   H1145160  20.762  11.472  13.263
  265ETHO   H1345161  20.873  11.471  13.111
  265ETHO    C245162  20.749  11.644  13.135
  265ETHO   H2145163  20.740  11.680  13.030
  265ETHO   H2345164  20.840  11.700  13.168
  265ETHO    OZ45165  20.631  11.675  13.204
  265ETHO   HZ145166  20.558  11.647  13.149
    1ETHO    O145167   6.552   7.818  18.870
    1ETHO   HO145168   6.578   7.853  18.785
    1ETHO    C145169   6.490   7.694  18.864
    1ETHO   H1145170   6.563   7.610  18.863
    1ETHO   H1345171   6.439   7.690  18.765
    1ETHO    C245172   6.387   7.681  18.975
    1ETHO   H2145173   6.315   7.605  18.938
    1ETHO   H2345174   6.333   7.777  18.991
    2ETHO    O145175   6.434   7.632  19.101
    2ETHO    C145176   6.322   7.600  19.187
    2ETHO   H1145177   6.221   7.594  19.141
    2ETHO   H1345178   6.325   7.496  19.227
    2ETHO    C245179   6.297   7.708  19.291
    2ETHO   H2145180   6.376   7.721  19.368
    2ETHO   H2345181   6.211   7.685  19.357
    3ETHO    O145182   6.267   7.833  19.223
    3ETHO    C145183   6.135   7.864  19.230
    3ETHO   H1145184   6.100   7.881  19.334
    3ETHO   H1345185   6.075   7.781  19.188
    3ETHO    C245186   6.100   7.989  19.153
    3ETHO   H2145187   6.146   8.086  19.182
    3ETHO   H2345188   5.993   8.017  19.157
    4ETHO    O145189   6.127   7.979  19.010
    4ETHO    C145190   6.209   8.082  18.970
    4ETHO   H1145191   6.178   8.179  19.016
    4ETHO   H1345192   6.313   8.051  18.991
    4ETHO    C245193   6.193   8.118  18.819
    4ETHO   H2145194   6.189   8.029  18.753
    4ETHO   H2345195   6.277   8.185  18.793
    5ETHO    O145196   6.077   8.187  18.784
    5ETHO    C145197   6.088   8.261  18.655
    5ETHO   H1145198   6.134   8.361  18.666
    5ETHO   H1345199   6.147   8.203  18.580
    5ETHO    C245200   5.944   8.276  18.595
    5ETHO   H2145201   5.885   8.182  18.596
    5ETHO   H2345202   5.952   8.312  18.490
    6ETHO    O145203   5.872   8.372  18.667
    6ETHO    C145204   5.752   8.402  18.591
    6ETHO   H1145205   5.791   8.464  18.507
    6ETHO   H1345206   5.696   8.312  18.558
    6ETHO    C245207   5.656   8.488  18.680
    6ETHO   H2145208   5.644   8.440  18.779
    6ETHO   H2345209   5.555   8.488  18.632
    7ETHO    O145210   5.717   8.618  18.689
    7ETHO    C145211   5.615   8.708  18.716
    7ETHO   H1145212   5.570   8.744  18.621
    7ETHO   H1345213   5.539   8.668  18.786
    7ETHO    C245214   5.668   8.832  18.778
    7ETHO   H2145215   5.591   8.909  18.802
    7ETHO   H2345216   5.745   8.877  18.712
    8ETHO    O145217   5.725   8.806  18.904
    8ETHO    C145218   5.764   8.914  18.979
    8ETHO   H1145219   5.689   8.996  18.969
    8ETHO   H1345220   5.853   8.951  18.923
    8ETHO    C245221   5.805   8.893  19.129
    8ETHO   H2145222   5.722   8.868  19.199
    8ETHO   H2345223   5.852   8.987  19.164
    9ETHO    O145224   5.901   8.796  19.135
    9ETHO    C145225   5.940   8.765  19.267
    9ETHO   H1145226   5.981   8.859  19.310
    9ETHO   H1345227   5.848   8.741  19.324
    9ETHO    C245228   6.056   8.661  19.272
    9ETHO   H2145229   6.039   8.579  19.198
    9ETHO   H2345230   6.066   8.636  19.380
   10ETHO    O145231   6.186   8.716  19.248
   10ETHO    C145232   6.204   8.730  19.109
   10ETHO   H1145233   6.141   8.815  19.076
   10ETHO   H1345234   6.162   8.644  19.051
   10ETHO    C245235   6.344   8.764  19.068
   10ETHO   H2145236   6.356   8.755  18.958
   10ETHO   H2345237   6.413   8.686  19.106
   11ETHO    O145238   6.379   8.897  19.092
   11ETHO    C145239   6.523   8.904  19.098
   11ETHO   H1145240   6.544   9.009  19.124
   11ETHO   H1345241   6.555   8.850  19.190
   11ETHO    C245242   6.609   8.856  18.973
   11ETHO   H2145243   6.715   8.884  18.990
   11ETHO   H2345244   6.609   8.746  18.956
   12ETHO    O145245   6.576   8.916  18.847
   12ETHO    C145246   6.577   9.058  18.860
   12ETHO   H1145247   6.638   9.094  18.945
   12ETHO   H1345248   6.477   9.103  18.880
   12ETHO    C245249   6.629   9.132  18.728
   12ETHO   H2145250   6.730   9.098  18.697
   12ETHO   H2345251   6.649   9.238  18.753
   13ETHO    O145252   6.529   9.136  18.626
   13ETHO    C145253   6.558   9.049  18.513
   13ETHO   H1145254   6.664   9.069  18.490
   13ETHO   H1345255   6.547   8.943  18.546
   13ETHO    C245256   6.482   9.100  18.390
   13ETHO   H2145257   6.545   9.087  18.299
   13ETHO   H2345258   6.457   9.208  18.398
   14ETHO    O145259   6.367   9.018  18.389
   14ETHO    C145260   6.250   9.079  18.333
   14ETHO   H1145261   6.259   9.055  18.224
   14ETHO   H1345262   6.274   9.187  18.334
   14ETHO    C245263   6.121   9.035  18.394
   14ETHO   H2145264   6.129   8.924  18.401
   14ETHO   H2345265   6.041   9.067  18.325
   15ETHO    O145266   6.097   9.095  18.522
   15ETHO    C145267   6.126   9.003  18.620
   15ETHO   H1145268   6.044   8.929  18.638
   15ETHO   H1345269   6.228   8.963  18.601
   15ETHO    C245270   6.138   9.061  18.764
   15ETHO   H2145271   6.156   8.981  18.839
   15ETHO   H2345272   6.225   9.130  18.772
   16ETHO    O145273   6.022   9.131  18.804
   16ETHO    C145274   6.049   9.185  18.927
   16ETHO   H1145275   6.059   9.101  18.998
   16ETHO   H1345276   6.135   9.255  18.932
   16ETHO    C245277   5.929   9.259  18.979
   16ETHO   H2145278   5.947   9.293  19.083
   16ETHO   H2345279   5.846   9.187  18.991
   17ETHO    O145280   5.888   9.366  18.893
   17ETHO    C145281   5.764   9.421  18.941
   17ETHO   H1145282   5.691   9.352  18.990
   17ETHO   H1345283   5.802   9.493  19.017
   17ETHO    C245284   5.687   9.506  18.844
   17ETHO   H2145285   5.763   9.570  18.793
   17ETHO   H2345286   5.618   9.571  18.900
   18ETHO    O145287   5.622   9.418  18.746
   18ETHO    C145288   5.550   9.502  18.656
   18ETHO   H1145289   5.455   9.535  18.705
   18ETHO   H1345290   5.618   9.588  18.642
   18ETHO    C245291   5.519   9.449  18.515
   18ETHO   H2145292   5.447   9.365  18.514
   18ETHO   H2345293   5.614   9.418  18.468
   19ETHO    O145294   5.467   9.556  18.430
   19ETHO    C145295   5.477   9.519  18.294
   19ETHO   H1145296   5.431   9.419  18.277
   19ETHO   H1345297   5.586   9.515  18.272
   19ETHO    C245298   5.395   9.619  18.207
   19ETHO   H2145299   5.417   9.615  18.098
   19ETHO   H2345300   5.425   9.721  18.242
   20ETHO    O145301   5.255   9.589  18.221
   20ETHO    C145302   5.185   9.714  18.213
   20ETHO   H1145303   5.235   9.783  18.284
   20ETHO   H1345304   5.199   9.752  18.110
   20ETHO    C245305   5.031   9.704  18.247
   20ETHO   H2145306   5.034   9.712  18.358
   20ETHO   H2345307   5.000   9.599  18.227
   21ETHO    O145308   4.952   9.805  18.195
   21ETHO    C145309   4.841   9.835  18.276
   21ETHO   H1145310   4.870   9.841  18.383
   21ETHO   H1345311   4.757   9.763  18.264
   21ETHO    C245312   4.783   9.975  18.245
   21ETHO   H2145313   4.701   9.986  18.318
   21ETHO   H2345314   4.737   9.982  18.143
   22ETHO    O145315   4.879  10.071  18.273
   22ETHO    C145316   4.829  10.205  18.248
   22ETHO   H1145317   4.842  10.225  18.140
   22ETHO   H1345318   4.720  10.207  18.272
   22ETHO    C245319   4.914  10.303  18.336
   22ETHO   H2145320   4.853  10.395  18.340
   22ETHO   H2345321   4.924  10.265  18.440
   23ETHO    O145322   5.044  10.326  18.280
   23ETHO    C145323   5.131  10.383  18.375
   23ETHO   H1145324   5.122  10.323  18.468
   23ETHO   H1345325   5.085  10.481  18.399
   23ETHO    C245326   5.273  10.392  18.321
   23ETHO   H2145327   5.295  10.302  18.260
   23ETHO   H2345328   5.345  10.377  18.405
   24ETHO    O145329   5.294  10.501  18.240
   24ETHO    C145330   5.426  10.500  18.188
   24ETHO   H1145331   5.488  10.505  18.280
   24ETHO   H1345332   5.445  10.406  18.132
   24ETHO    C245333   5.463  10.623  18.100
   24ETHO   H2145334   5.565  10.656  18.129
   24ETHO   H2345335   5.401  10.708  18.138
   25ETHO    O145336   5.444  10.616  17.958
   25ETHO    C145337   5.458  10.739  17.889
   25ETHO   H1145338   5.394  10.822  17.924
   25ETHO   H1345339   5.435  10.722  17.781
   25ETHO    C245340   5.608  10.765  17.884
   25ETHO   H2145341   5.630  10.828  17.795
   25ETHO   H2345342   5.663  10.674  17.852
   26ETHO    O145343   5.665  10.816  18.003
   26ETHO    C145344   5.781  10.898  17.981
   26ETHO   H1145345   5.837  10.851  17.897
   26ETHO   H1345346   5.734  10.995  17.953
   26ETHO    C245347   5.870  10.912  18.104
   26ETHO   H2145348   5.901  10.807  18.124
   26ETHO   H2345349   5.825  10.947  18.199
   27ETHO    O145350   5.993  10.980  18.083
   27ETHO    C145351   6.073  10.996  18.201
   27ETHO   H1145352   6.160  10.929  18.184
   27ETHO   H1345353   6.020  10.978  18.296
   27ETHO    C245354   6.115  11.145  18.201
   27ETHO   H2145355   6.165  11.155  18.103
   27ETHO   H2345356   6.193  11.168  18.277
   28ETHO    O145357   6.008  11.237  18.220
   28ETHO    C145358   6.022  11.354  18.136
   28ETHO   H1145359   6.112  11.415  18.161
   28ETHO   H1345360   6.029  11.317  18.032
   28ETHO    C245361   5.903  11.450  18.137
   28ETHO   H2145362   5.921  11.535  18.069
   28ETHO   H2345363   5.892  11.490  18.240
   29ETHO    O145364   5.786  11.368  18.112
   29ETHO    C145365   5.668  11.441  18.130
   29ETHO   H1145366   5.665  11.533  18.067
   29ETHO   H1345367   5.665  11.481  18.234
   29ETHO    C245368   5.549  11.346  18.097
   29ETHO   H2145369   5.450  11.396  18.101
   29ETHO   H2345370   5.541  11.274  18.182
   30ETHO    O145371   5.556  11.288  17.966
   30ETHO    C145372   5.472  11.176  17.953
   30ETHO   H1145373   5.514  11.087  18.005
   30ETHO   H1345374   5.374  11.200  17.999
   30ETHO    C245375   5.466  11.150  17.802
   30ETHO   H2145376   5.452  11.242  17.742
   30ETHO   H2345377   5.374  11.094  17.775
   31ETHO    O145378   5.584  11.080  17.767
   31ETHO    C145379   5.693  11.160  17.750
   31ETHO   H1145380   5.663  11.257  17.707
   31ETHO   H1345381   5.746  11.186  17.844
   31ETHO    C245382   5.791  11.099  17.650
   31ETHO   H2145383   5.837  11.002  17.677
   31ETHO   H2345384   5.873  11.171  17.631
   32ETHO    O145385   5.714  11.073  17.532
   32ETHO    C145386   5.799  11.023  17.424
   32ETHO   H1145387   5.867  11.102  17.385
   32ETHO   H1345388   5.858  10.937  17.462
   32ETHO    C245389   5.712  10.977  17.309
   32ETHO   H2145390   5.634  10.904  17.338
   32ETHO   H2345391   5.786  10.919  17.249
   33ETHO    O145392   5.651  11.084  17.239
   33ETHO    C145393   5.578  11.039  17.124
   33ETHO   H1145394   5.634  10.964  17.064
   33ETHO   H1345395   5.486  10.989  17.162
   33ETHO    C245396   5.541  11.166  17.038
   33ETHO   H2145397   5.505  11.121  16.943
   33ETHO   H2345398   5.635  11.219  17.016
   34ETHO    O145399   5.439  11.252  17.081
   34ETHO    C145400   5.443  11.382  17.014
   34ETHO   H1145401   5.421  11.365  16.906
   34ETHO   H1345402   5.547  11.422  17.016
   34ETHO    C245403   5.345  11.488  17.060
   34ETHO   H2145404   5.241  11.449  17.062
   34ETHO   H2345405   5.355  11.576  16.993
   35ETHO    O145406   5.395  11.520  17.195
   35ETHO    C145407   5.326  11.635  17.241
   35ETHO   H1145408   5.364  11.724  17.186
   35ETHO   H1345409   5.218  11.628  17.215
   35ETHO    C245410   5.331  11.647  17.388
   35ETHO   H2145411   5.307  11.753  17.411
   35ETHO   H2345412   5.434  11.630  17.426
   36ETHO    O145413   5.236  11.571  17.469
   36ETHO    C145414   5.265  11.434  17.475
   36ETHO   H1145415   5.372  11.424  17.501
   36ETHO   H1345416   5.248  11.378  17.381
   36ETHO    C245417   5.182  11.381  17.592
   36ETHO   H2145418   5.199  11.440  17.685
   36ETHO   H2345419   5.210  11.278  17.625
   37ETHO    O145420   5.051  11.372  17.549
   37ETHO    C145421   4.967  11.360  17.667
   37ETHO   H1145422   4.976  11.255  17.701
   37ETHO   H1345423   5.002  11.414  17.758
   37ETHO    C245424   4.815  11.381  17.640
   37ETHO   H2145425   4.810  11.434  17.543
   37ETHO   H2345426   4.771  11.444  17.720
   38ETHO    O145427   4.748  11.250  17.642
   38ETHO    C145428   4.609  11.261  17.619
   38ETHO   H1145429   4.607  11.326  17.529
   38ETHO   H1345430   4.572  11.314  17.709
   38ETHO    C245431   4.540  11.132  17.591
   38ETHO   H2145432   4.586  11.071  17.511
   38ETHO   H2345433   4.436  11.160  17.562
   39ETHO    O145434   4.536  11.043  17.707
   39ETHO    C145435   4.562  10.904  17.670
   39ETHO   H1145436   4.654  10.881  17.612
   39ETHO   H1345437   4.576  10.855  17.768
   39ETHO    C245438   4.437  10.845  17.606
   39ETHO   H2145439   4.453  10.739  17.574
   39ETHO   H2345440   4.399  10.911  17.525
   40ETHO    O145441   4.337  10.840  17.704
   40ETHO    C145442   4.216  10.789  17.648
   40ETHO   H1145443   4.226  10.685  17.612
   40ETHO   H1345444   4.188  10.851  17.560
   40ETHO    C245445   4.104  10.808  17.752
   40ETHO   H2145446   3.999  10.791  17.720
   40ETHO   H2345447   4.118  10.914  17.782
   41ETHO    O145448   4.131  10.718  17.866
   41ETHO    C145449   4.009  10.677  17.928
   41ETHO   H1145450   4.044  10.642  18.028
   41ETHO   H1345451   3.949  10.770  17.917
   41ETHO    C245452   3.932  10.572  17.854
   41ETHO   H2145453   3.915  10.583  17.745
   41ETHO   H2345454   3.833  10.555  17.903
   42ETHO    O145455   4.013  10.463  17.872
   42ETHO    C145456   3.948  10.354  17.922
   42ETHO   H1145457   3.905  10.360  18.024
   42ETHO   H1345458   3.863  10.330  17.855
   42ETHO    C245459   4.043  10.242  17.931
   42ETHO   H2145460   4.125  10.269  18.001
   42ETHO   H2345461   4.094  10.238  17.832
   43ETHO    O145462   3.985  10.125  17.978
   43ETHO    C145463   4.090  10.030  18.012
   43ETHO   H1145464   4.165  10.026  17.930
   43ETHO   H1345465   4.133  10.072  18.105
   43ETHO    C245466   4.040   9.888  18.026
   43ETHO   H2145467   3.932   9.884  18.051
   43ETHO   H2345468   4.076   9.843  18.121
   44ETHO    O145469   4.071   9.801  17.915
   44ETHO    C145470   3.967   9.824  17.817
   44ETHO   H1145471   3.873   9.804  17.873
   44ETHO   H1345472   3.963   9.933  17.795
   44ETHO    C245473   3.984   9.728  17.698
   44ETHO   H2145474   3.895   9.748  17.635
   44ETHO   H2345475   3.973   9.623  17.732
   45ETHO    O145476   4.106   9.760  17.627
   45ETHO    C145477   4.133   9.667  17.527
   45ETHO   H1145478   4.054   9.675  17.449
   45ETHO   H1345479   4.153   9.570  17.576
   45ETHO    C245480   4.273   9.716  17.481
   45ETHO   H2145481   4.259   9.824  17.460
   45ETHO   H2345482   4.290   9.658  17.387
   46ETHO    O145483   4.390   9.702  17.568
   46ETHO    C145484   4.512   9.703  17.482
   46ETHO   H1145485   4.521   9.604  17.432
   46ETHO   H1345486   4.493   9.766  17.393
   46ETHO    C245487   4.635   9.740  17.554
   46ETHO   H2145488   4.719   9.760  17.484
   46ETHO   H2345489   4.664   9.650  17.612
   47ETHO    O145490   4.599   9.860  17.622
   47ETHO    C145491   4.713   9.909  17.692
   47ETHO   H1145492   4.793   9.934  17.619
   47ETHO   H1345493   4.748   9.833  17.764
   47ETHO    C245494   4.690  10.041  17.760
   47ETHO   H2145495   4.757  10.063  17.845
   47ETHO   H2345496   4.593  10.032  17.814
   48ETHO    O145497   4.690  10.146  17.662
   48ETHO    C145498   4.655  10.272  17.718
   48ETHO   H1145499   4.565  10.254  17.781
   48ETHO   H1345500   4.735  10.304  17.787
   48ETHO    C245501   4.638  10.374  17.601
   48ETHO   H2145502   4.594  10.330  17.508
   48ETHO   H2345503   4.576  10.463  17.626
   49ETHO    O145504   4.761  10.436  17.563
   49ETHO    C145505   4.845  10.339  17.506
   49ETHO   H1145506   4.788  10.272  17.438
   49ETHO   H1345507   4.885  10.283  17.593
   49ETHO    C245508   4.956  10.407  17.426
   49ETHO   H2145509   5.040  10.337  17.407
   49ETHO   H2345510   4.987  10.503  17.473
   50ETHO    O145511   4.917  10.452  17.299
   50ETHO    C145512   5.021  10.522  17.232
   50ETHO   H1145513   5.047  10.619  17.278
   50ETHO   H1345514   5.117  10.467  17.238
   50ETHO    C245515   4.988  10.558  17.090
   50ETHO   H2145516   5.065  10.619  17.038
   50ETHO   H2345517   4.899  10.623  17.105
   51ETHO    O145518   4.965  10.441  17.014
   51ETHO    C145519   4.899  10.478  16.895
   51ETHO   H1145520   4.965  10.549  16.839
   51ETHO   H1345521   4.804  10.527  16.926
   51ETHO    C245522   4.868  10.354  16.820
   51ETHO   H2145523   4.805  10.376  16.731
   51ETHO   H2345524   4.817  10.287  16.892
   52ETHO    O145525   4.996  10.298  16.779
   52ETHO    C145526   4.982  10.161  16.734
   52ETHO   H1145527   4.944  10.092  16.812
   52ETHO   H1345528   4.909  10.152  16.651
   52ETHO    C245529   5.118  10.094  16.702
   52ETHO   H2145530   5.107   9.992  16.660
   52ETHO   H2345531   5.173  10.087  16.798
   53ETHO    O145532   5.194  10.168  16.608
   53ETHO    C145533   5.158  10.134  16.471
   53ETHO   H1145534   5.076  10.060  16.455
   53ETHO   H1345535   5.115  10.217  16.412
   53ETHO    C245536   5.279  10.073  16.395
   53ETHO   H2145537   5.240  10.050  16.294
   53ETHO   H2345538   5.314   9.983  16.449
   54ETHO    O145539   5.383  10.171  16.382
   54ETHO    C145540   5.511  10.119  16.362
   54ETHO   H1145541   5.500  10.053  16.274
   54ETHO   H1345542   5.580  10.200  16.330
   54ETHO    C245543   5.568  10.049  16.490
   54ETHO   H2145544   5.610   9.949  16.464
   54ETHO   H2345545   5.486  10.022  16.559
   55ETHO    O145546   5.664  10.127  16.560
   55ETHO    C145547   5.732  10.066  16.664
   55ETHO   H1145548   5.753  10.148  16.737
   55ETHO   H1345549   5.657  10.005  16.720
   55ETHO    C245550   5.850   9.977  16.634
   55ETHO   H2145551   5.875   9.924  16.728
   55ETHO   H2345552   5.822   9.911  16.549
   56ETHO    O145553   5.961  10.054  16.606
   56ETHO    C145554   6.076   9.969  16.594
   56ETHO   H1145555   6.052   9.876  16.537
   56ETHO   H1345556   6.109   9.932  16.693
   56ETHO    C245557   6.181  10.056  16.511
   56ETHO   H2145558   6.124  10.082  16.419
   56ETHO   H2345559   6.259   9.979  16.489
   57ETHO    O145560   6.228  10.173  16.573
   57ETHO    C145561   6.311  10.239  16.474
   57ETHO   H1145562   6.398  10.172  16.454
   57ETHO   H1345563   6.256  10.242  16.378
   57ETHO    C245564   6.366  10.375  16.526
   57ETHO   H2145565   6.471  10.387  16.492
   57ETHO   H2345566   6.384  10.378  16.636
   58ETHO    O145567   6.282  10.489  16.493
   58ETHO    C145568   6.172  10.504  16.580
   58ETHO   H1145569   6.206  10.543  16.678
   58ETHO   H1345570   6.132  10.404  16.607
   58ETHO    C245571   6.054  10.581  16.524
   58ETHO   H2145572   5.956  10.543  16.561
   58ETHO   H2345573   6.043  10.583  16.414
   59ETHO    O145574   6.059  10.720  16.560
   59ETHO    C145575   5.951  10.799  16.499
   59ETHO   H1145576   5.984  10.835  16.399
   59ETHO   H1345577   5.866  10.729  16.489
   59ETHO    C245578   5.914  10.910  16.602
   59ETHO   H2145579   5.821  10.957  16.565
   59ETHO   H2345580   6.000  10.980  16.595
   60ETHO    O145581   5.888  10.869  16.734
   60ETHO    C145582   5.852  10.975  16.826
   60ETHO   H1145583   5.759  10.936  16.871
   60ETHO   H1345584   5.820  11.068  16.774
   60ETHO    C245585   5.948  10.997  16.943
   60ETHO   H2145586   5.914  11.088  16.997
   60ETHO   H2345587   6.048  11.011  16.896
   61ETHO    O145588   5.940  10.884  17.030
   61ETHO    C145589   6.062  10.873  17.101
   61ETHO   H1145590   6.152  10.903  17.042
   61ETHO   H1345591   6.061  10.948  17.183
   61ETHO    C245592   6.090  10.738  17.165
   61ETHO   H2145593   6.188  10.741  17.217
   61ETHO   H2345594   6.084  10.654  17.092
   62ETHO    O145595   5.992  10.724  17.266
   62ETHO    C145596   5.973  10.588  17.312
   62ETHO   H1145597   6.067  10.543  17.350
   62ETHO   H1345598   5.940  10.516  17.234
   62ETHO    C245599   5.869  10.596  17.423
   62ETHO   H2145600   5.779  10.650  17.388
   62ETHO   H2345601   5.915  10.655  17.506
   63ETHO    O145602   5.833  10.462  17.466
   63ETHO    C145603   5.921  10.410  17.568
   63ETHO   H1145604   6.017  10.377  17.522
   63ETHO   H1345605   5.944  10.485  17.646
   63ETHO    C245606   5.853  10.293  17.636
   63ETHO   H2145607   5.922  10.257  17.715
   63ETHO   H2345608   5.836  10.204  17.572
   64ETHO    O145609   5.735  10.347  17.691
   64ETHO    C145610   5.680  10.261  17.789
   64ETHO   H1145611   5.756  10.247  17.869
   64ETHO   H1345612   5.673  10.159  17.745
   64ETHO    C245613   5.555  10.325  17.835
   64ETHO   H2145614   5.571  10.434  17.849
   64ETHO   H2345615   5.517  10.276  17.927
   65ETHO    O145616   5.455  10.307  17.741
   65ETHO    C145617   5.321  10.321  17.791
   65ETHO   H1145618   5.321  10.275  17.892
   65ETHO   H1345619   5.302  10.430  17.789
   65ETHO    C245620   5.224  10.256  17.685
   65ETHO   H2145621   5.246  10.281  17.579
   65ETHO   H2345622   5.132  10.317  17.697
   66ETHO    O145623   5.193  10.123  17.714
   66ETHO    C145624   5.110  10.063  17.611
   66ETHO   H1145625   5.132  10.100  17.508
   66ETHO   H1345626   5.011  10.105  17.640
   66ETHO    C245627   5.109   9.905  17.609
   66ETHO   H2145628   5.214   9.872  17.589
   66ETHO   H2345629   5.043   9.883  17.523
   67ETHO    O145630   5.058   9.837  17.725
   67ETHO    C145631   5.055   9.699  17.702
   67ETHO   H1145632   4.995   9.686  17.610
   67ETHO   H1345633   5.158   9.666  17.678
   67ETHO    C245634   4.992   9.617  17.818
   67ETHO   H2145635   5.018   9.671  17.912
   67ETHO   H2345636   5.049   9.522  17.817
   68ETHO    O145637   4.850   9.596  17.808
   68ETHO    C145638   4.798   9.508  17.903
   68ETHO   H1145639   4.847   9.409  17.907
   68ETHO   H1345640   4.831   9.547  18.002
   68ETHO    C245641   4.651   9.484  17.890
   68ETHO   H2145642   4.592   9.577  17.903
   68ETHO   H2345643   4.605   9.411  17.961
   69ETHO    O145644   4.628   9.419  17.767
   69ETHO    C145645   4.493   9.375  17.742
   69ETHO   H1145646   4.459   9.298  17.815
   69ETHO   H1345647   4.418   9.457  17.743
   69ETHO    C245648   4.487   9.319  17.602
   69ETHO   H2145649   4.556   9.232  17.607
   69ETHO   H2345650   4.521   9.392  17.525
   70ETHO    O145651   4.358   9.282  17.562
   70ETHO    C145652   4.351   9.287  17.420
   70ETHO   H1145653   4.378   9.391  17.392
   70ETHO   H1345654   4.427   9.222  17.371
   70ETHO    C245655   4.216   9.231  17.362
   70ETHO   H2145656   4.210   9.129  17.405
   70ETHO   H2345657   4.233   9.229  17.252
   71ETHO    O145658   4.115   9.318  17.399
   71ETHO    C145659   3.991   9.248  17.394
   71ETHO   H1145660   4.002   9.152  17.447
   71ETHO   H1345661   3.961   9.219  17.291
   71ETHO    C245662   3.881   9.329  17.454
   71ETHO   H2145663   3.921   9.380  17.545
   71ETHO   H2345664   3.793   9.272  17.490
   72ETHO    O145665   3.840   9.427  17.365
   72ETHO    C145666   3.779   9.534  17.431
   72ETHO   H1145667   3.688   9.489  17.476
   72ETHO   H1345668   3.848   9.575  17.509
   72ETHO    C245669   3.751   9.654  17.339
   72ETHO   H2145670   3.709   9.732  17.406
   72ETHO   H2345671   3.675   9.623  17.265
   73ETHO    O145672   3.870   9.699  17.272
   73ETHO    C145673   3.842   9.834  17.226
   73ETHO   H1145674   3.827   9.895  17.318
   73ETHO   H1345675   3.756   9.827  17.156
   73ETHO    C245676   3.957   9.908  17.149
   73ETHO   H2145677   4.035   9.920  17.227
   73ETHO   H2345678   3.929  10.012  17.119
   74ETHO    O145679   3.989   9.839  17.032
   74ETHO    C145680   4.088   9.907  16.953
   74ETHO   H1145681   4.135   9.831  16.887
   74ETHO   H1345682   4.036   9.992  16.903
   74ETHO    C245683   4.203   9.980  17.028
   74ETHO   H2145684   4.281   9.999  16.951
   74ETHO   H2345685   4.239   9.908  17.104
   75ETHO    O145686   4.163  10.107  17.078
   75ETHO    C145687   4.271  10.169  17.149
   75ETHO   H1145688   4.367  10.139  17.102
   75ETHO   H1345689   4.272  10.137  17.255
   75ETHO    C245690   4.260  10.320  17.134
   75ETHO   H2145691   4.349  10.369  17.179
   75ETHO   H2345692   4.169  10.352  17.189
   76ETHO    O145693   4.246  10.365  17.002
   76ETHO    C145694   4.218  10.502  17.004
   76ETHO   H1145695   4.127  10.527  17.062
   76ETHO   H1345696   4.307  10.555  17.043
   76ETHO    C245697   4.194  10.568  16.865
   76ETHO   H2145698   4.181  10.674  16.897
   76ETHO   H2345699   4.106  10.525  16.812
   77ETHO    O145700   4.313  10.548  16.781
   77ETHO    C145701   4.294  10.600  16.654
   77ETHO   H1145702   4.259  10.706  16.647
   77ETHO   H1345703   4.213  10.531  16.621
   77ETHO    C245704   4.415  10.584  16.560
   77ETHO   H2145705   4.499  10.627  16.618
   77ETHO   H2345706   4.404  10.644  16.467
   78ETHO    O145707   4.440  10.456  16.514
   78ETHO    C145708   4.536  10.384  16.582
   78ETHO   H1145709   4.633  10.438  16.572
   78ETHO   H1345710   4.523  10.373  16.691
   78ETHO    C245711   4.539  10.244  16.543
   78ETHO   H2145712   4.623  10.194  16.595
   78ETHO   H2345713   4.558  10.233  16.434
   79ETHO    O145714   4.426  10.174  16.582
   79ETHO    C145715   4.410  10.040  16.524
   79ETHO   H1145716   4.373  10.056  16.421
   79ETHO   H1345717   4.510   9.997  16.503
   79ETHO    C245718   4.316   9.951  16.608
   79ETHO   H2145719   4.308   9.857  16.550
   79ETHO   H2345720   4.217  10.000  16.611
   80ETHO    O145721   4.358   9.923  16.742
   80ETHO    C145722   4.433   9.810  16.758
   80ETHO   H1145723   4.383   9.718  16.722
   80ETHO   H1345724   4.529   9.812  16.701
   80ETHO    C245725   4.471   9.771  16.905
   80ETHO   H2145726   4.518   9.671  16.897
   80ETHO   H2345727   4.376   9.756  16.961
   81ETHO    O145728   4.549   9.874  16.960
   81ETHO    C145729   4.580   9.843  17.099
   81ETHO   H1145730   4.489   9.811  17.154
   81ETHO   H1345731   4.649   9.756  17.096
   81ETHO    C245732   4.642   9.966  17.166
   81ETHO   H2145733   4.564  10.045  17.161
   81ETHO   H2345734   4.664   9.937  17.270
   82ETHO    O145735   4.769  10.002  17.112
   82ETHO    C145736   4.823  10.129  17.155
   82ETHO   H1145737   4.800  10.138  17.263
   82ETHO   H1345738   4.780  10.211  17.094
   82ETHO    C245739   4.975  10.142  17.135
   82ETHO   H2145740   4.994  10.250  17.152
   82ETHO   H2345741   5.003  10.118  17.031
   83ETHO    O145742   5.059  10.080  17.227
   83ETHO    C145743   5.190  10.094  17.182
   83ETHO   H1145744   5.205  10.034  17.090
   83ETHO   H1345745   5.195  10.204  17.167
   83ETHO    C245746   5.299  10.042  17.276
   83ETHO   H2145747   5.386  10.013  17.212
   83ETHO   H2345748   5.248   9.952  17.317
   84ETHO    O145749   5.344  10.134  17.370
   84ETHO    C145750   5.432  10.237  17.322
   84ETHO   H1145751   5.423  10.317  17.398
   84ETHO   H1345752   5.403  10.267  17.219
   84ETHO    C245753   5.584  10.213  17.313
   84ETHO   H2145754   5.602  10.123  17.376
   84ETHO   H2345755   5.630  10.294  17.372
   85ETHO    O145756   5.639  10.191  17.182
   85ETHO    C145757   5.778  10.167  17.194
   85ETHO   H1145758   5.824  10.245  17.258
   85ETHO   H1345759   5.788  10.065  17.237
   85ETHO    C245760   5.864  10.188  17.068
   85ETHO   H2145761   5.806  10.153  16.980
   85ETHO   H2345762   5.955  10.131  17.096
   86ETHO    O145763   5.891  10.326  17.035
   86ETHO    C145764   5.998  10.342  16.942
   86ETHO   H1145765   5.980  10.444  16.902
   86ETHO   H1345766   5.999  10.275  16.854
   86ETHO    C245767   6.131  10.318  17.006
   86ETHO   H2145768   6.174  10.217  16.989
   86ETHO   H2345769   6.131  10.332  17.116
   87ETHO    O145770   6.232  10.406  16.954
   87ETHO    C145771   6.363  10.367  16.999
   87ETHO   H1145772   6.350  10.339  17.105
   87ETHO   H1345773   6.390  10.273  16.946
   87ETHO    C245774   6.473  10.478  16.984
   87ETHO   H2145775   6.567  10.470  17.043
   87ETHO   H2345776   6.416  10.563  17.026
   88ETHO    O145777   6.500  10.486  16.840
   88ETHO    C145778   6.513  10.619  16.793
   88ETHO   H1145779   6.557  10.691  16.865
   88ETHO   H1345780   6.410  10.654  16.770
   88ETHO    C245781   6.583  10.632  16.656
   88ETHO   H2145782   6.569  10.738  16.626
   88ETHO   H2345783   6.537  10.561  16.584
   89ETHO    O145784   6.723  10.614  16.657
   89ETHO    C145785   6.764  10.488  16.700
   89ETHO   H1145786   6.766  10.476  16.810
   89ETHO   H1345787   6.691  10.419  16.651
   89ETHO    C245788   6.918  10.466  16.657
   89ETHO   H2145789   6.959  10.373  16.702
   89ETHO   H2345790   6.966  10.558  16.697
   90ETHO    O145791   6.917  10.458  16.519
   90ETHO    C145792   7.031  10.515  16.456
   90ETHO   H1145793   7.112  10.483  16.525
   90ETHO   H1345794   7.041  10.467  16.356
   90ETHO    C245795   7.011  10.660  16.425
   90ETHO   H2145796   7.024  10.720  16.517
   90ETHO   H2345797   6.907  10.675  16.389
   91ETHO    O145798   7.096  10.714  16.327
   91ETHO    C145799   7.106  10.859  16.341
   91ETHO   H1145800   7.007  10.902  16.368
   91ETHO   H1345801   7.176  10.891  16.421
   91ETHO    C245802   7.158  10.924  16.213
   91ETHO   H2145803   7.126  11.030  16.214
   91ETHO   H2345804   7.109  10.863  16.134
   92ETHO    O145805   7.300  10.932  16.199
   92ETHO    C145806   7.369  10.814  16.160
   92ETHO   H1145807   7.325  10.720  16.200
   92ETHO   H1345808   7.368  10.807  16.049
   92ETHO    C245809   7.515  10.829  16.203
   92ETHO   H2145810   7.571  10.735  16.185
   92ETHO   H2345811   7.510  10.848  16.313
   93ETHO    O145812   7.585  10.939  16.134
   93ETHO    C145813   7.703  10.974  16.204
   93ETHO   H1145814   7.669  10.980  16.310
   93ETHO   H1345815   7.738  11.074  16.173
   93ETHO    C245816   7.815  10.881  16.177
   93ETHO   H2145817   7.800  10.776  16.211
   93ETHO   H2345818   7.899  10.919  16.239
   94ETHO    O145819   7.857  10.887  16.040
   94ETHO    C145820   7.985  10.817  16.014
   94ETHO   H1145821   8.064  10.852  16.084
   94ETHO   H1345822   7.970  10.708  16.029
   94ETHO    C245823   8.037  10.829  15.869
   94ETHO   H2145824   7.942  10.817  15.812
   94ETHO   H2345825   8.114  10.751  15.847
   95ETHO    O145826   8.090  10.959  15.839
   95ETHO    C145827   8.112  10.964  15.699
   95ETHO   H1145828   8.016  10.955  15.645
   95ETHO   H1345829   8.169  10.879  15.656
   95ETHO    C245830   8.173  11.101  15.662
   95ETHO   H2145831   8.136  11.188  15.719
   95ETHO   H2345832   8.150  11.123  15.556
   96ETHO    O145833   8.319  11.093  15.673
   96ETHO    C145834   8.377  11.224  15.691
   96ETHO   H1145835   8.331  11.286  15.611
   96ETHO   H1345836   8.359  11.256  15.796
   96ETHO    C245837   8.528  11.237  15.681
   96ETHO   H2145838   8.576  11.197  15.773
   96ETHO   H2345839   8.573  11.335  15.656
   97ETHO    O145840   8.565  11.151  15.575
   97ETHO    C145841   8.703  11.165  15.543
   97ETHO   H1145842   8.757  11.120  15.629
   97ETHO   H1345843   8.729  11.271  15.526
   97ETHO    C245844   8.722  11.089  15.404
   97ETHO   H2145845   8.831  11.093  15.389
   97ETHO   H2345846   8.680  11.148  15.320
   98ETHO    O145847   8.674  10.956  15.410
   98ETHO    C145848   8.727  10.873  15.301
   98ETHO   H1145849   8.838  10.873  15.294
   98ETHO   H1345850   8.695  10.775  15.343
   98ETHO    C245851   8.666  10.900  15.164
   98ETHO   H2145852   8.556  10.911  15.172
   98ETHO   H2345853   8.695  10.810  15.106
   99ETHO    O145854   8.724  11.011  15.096
   99ETHO    C145855   8.669  11.028  14.964
   99ETHO   H1145856   8.615  11.125  14.964
   99ETHO   H1345857   8.594  10.950  14.938
   99ETHO    C245858   8.772  11.019  14.854
   99ETHO   H2145859   8.729  11.027  14.752
   99ETHO   H2345860   8.826  10.922  14.856
  100ETHO    O145861   8.873  11.127  14.857
  100ETHO    C145862   8.964  11.111  14.749
  100ETHO   H1145863   8.975  11.010  14.705
  100ETHO   H1345864   8.921  11.161  14.660
  100ETHO    C245865   9.100  11.172  14.772
  100ETHO   H2145866   9.090  11.278  14.803
  100ETHO   H2345867   9.149  11.160  14.673
  101PROX    O145868   9.184  11.091  14.856
  101PROX    C145869   9.321  11.136  14.876
  101PROX   H1145870   9.378  11.153  14.782
  101PROX   H1345871   9.320  11.235  14.927
  101PROX    C245872   9.394  11.021  14.955
  101PROX   H2145873   9.391  10.927  14.896
  101PROX    C345874   9.335  10.996  15.092
  101PROX   H3145875   9.374  10.905  15.141
  101PROX   H3245876   9.361  11.079  15.161
  101PROX   H3345877   9.226  10.975  15.087
  102PROX    O145878   9.532  11.060  14.970
  102PROX    C145879   9.617  10.943  14.980
  102PROX   H1145880   9.687  10.948  15.066
  102PROX   H1345881   9.560  10.849  14.995
  102PROX    C245882   9.706  10.938  14.858
  102PROX   H2145883   9.744  11.041  14.840
  102PROX    C345884   9.634  10.899  14.729
  102PROX   H3145885   9.576  10.805  14.740
  102PROX   H3245886   9.559  10.979  14.711
  102PROX   H3345887   9.703  10.890  14.642
  103PROX    O145888   9.821  10.859  14.868
  103PROX    C145889   9.933  10.931  14.919
  103PROX   H1145890   9.955  11.013  14.847
  103PROX   H1345891   9.911  10.972  15.020
  103PROX    C245892  10.064  10.851  14.924
  103PROX   H2145893  10.048  10.748  14.962
  103PROX    C345894  10.162  10.924  15.015
  103PROX   H3145895  10.264  10.879  15.013
  103PROX   H3245896  10.174  11.031  14.987
  103PROX   H3345897  10.127  10.910  15.119
  104PROX    O145898  10.145  10.847  14.801
  104PROX    C145899  10.069  10.794  14.685
  104PROX   H1145900   9.976  10.852  14.666
  104PROX   H1345901  10.131  10.812  14.595
  104PROX    C245902  10.048  10.641  14.697
  104PROX   H2145903   9.993  10.620  14.792
  104PROX    C345904  10.186  10.565  14.717
  104PROX   H3145905  10.250  10.633  14.777
  104PROX   H3245906  10.177  10.469  14.772
  104PROX   H3345907  10.240  10.556  14.620
  105PROX    O145908   9.973  10.578  14.594
  105PROX    C145909   9.842  10.629  14.572
  105PROX   H1145910   9.776  10.613  14.660
  105PROX   H1345911   9.848  10.738  14.551
  105PROX    C245912   9.785  10.554  14.449
  105PROX   H2145913   9.857  10.579  14.368
  105PROX    C345914   9.644  10.609  14.413
  105PROX   H3145915   9.608  10.569  14.316
  105PROX   H3245916   9.575  10.592  14.498
  105PROX   H3345917   9.648  10.719  14.398
  106PROX    O145918   9.786  10.405  14.471
  106PROX    C145919   9.788  10.333  14.344
  106PROX   H1145920   9.688  10.350  14.297
  106PROX   H1345921   9.874  10.374  14.288
  106PROX    C245922   9.815  10.187  14.367
  106PROX   H2145923   9.748  10.147  14.446
  106PROX    C345924   9.958  10.173  14.422
  106PROX   H3145925  10.026  10.208  14.341
  106PROX   H3245926   9.980  10.227  14.517
  106PROX   H3345927   9.987  10.069  14.450
  107PROX    O145928   9.799  10.103  14.249
  107PROX    C145929   9.887  10.131  14.143
  107PROX   H1145930   9.908  10.238  14.124
  107PROX   H1345931   9.986  10.084  14.164
  107PROX    C245932   9.827  10.064  14.018
  107PROX   H2145933   9.795   9.961  14.043
  107PROX    C345934   9.917  10.081  13.886
  107PROX   H3145935   9.916  10.188  13.858
  107PROX   H3245936  10.018  10.047  13.918
  107PROX   H3345937   9.879  10.019  13.802
  108PROX    O145938   9.699  10.134  13.996
  108PROX    C145939   9.626  10.074  13.899
  108PROX   H1145940   9.669  10.091  13.798
  108PROX   H1345941   9.621   9.966  13.923
  108PROX    C245942   9.482  10.139  13.890
  108PROX   H2145943   9.419  10.092  13.968
  108PROX    C345944   9.434  10.118  13.747
  108PROX   H3145945   9.476  10.022  13.711
  108PROX   H3245946   9.323  10.117  13.735
  108PROX   H3345947   9.473  10.191  13.672
  109PROX    O145948   9.496  10.279  13.924
  109PROX    C145949   9.379  10.355  13.890
  109PROX   H1145950   9.392  10.393  13.787
  109PROX   H1345951   9.285  10.295  13.896
  109PROX    C245952   9.371  10.478  13.982
  109PROX   H2145953   9.462  10.543  13.973
  109PROX    C345954   9.351  10.437  14.132
  109PROX   H3145955   9.264  10.368  14.136
  109PROX   H3245956   9.437  10.383  14.177
  109PROX   H3345957   9.335  10.532  14.186
  110PROX    O145958   9.264  10.560  13.951
  110PROX    C145959   9.265  10.621  13.824
  110PROX   H1145960   9.366  10.631  13.778
  110PROX   H1345961   9.204  10.556  13.758
  110PROX    C245962   9.196  10.760  13.831
  110PROX   H2145963   9.089  10.743  13.856
  110PROX    C345964   9.183  10.841  13.696
  110PROX   H3145965   9.109  10.791  13.630
  110PROX   H3245966   9.155  10.941  13.736
  110PROX   H3345967   9.282  10.850  13.648
  111PROX    O145968   9.248  10.845  13.931
  111PROX    C145969   9.376  10.900  13.895
  111PROX   H1145970   9.436  10.824  13.842
  111PROX   H1345971   9.362  10.997  13.842
  111PROX    C245972   9.454  10.929  14.025
  111PROX   H2145973   9.429  10.843  14.090
  111PROX    C345974   9.430  11.064  14.091
  111PROX   H3145975   9.497  11.083  14.178
  111PROX   H3245976   9.448  11.144  14.016
  111PROX   H3345977   9.327  11.077  14.132
  112PROX    O145978   9.595  10.927  14.002
  112PROX    C145979   9.667  10.882  14.125
  112PROX   H1145980   9.695  10.973  14.182
  112PROX   H1345981   9.603  10.823  14.195
  112PROX    C245982   9.787  10.795  14.090
  112PROX   H2145983   9.857  10.848  14.021
  112PROX    C345984   9.751  10.675  14.009
  112PROX   H3145985   9.682  10.619  14.076
  112PROX   H3245986   9.700  10.696  13.913
  112PROX   H3345987   9.846  10.624  13.981
  113PROX    O145988   9.851  10.754  14.210
  113PROX    C145989   9.908  10.856  14.290
  113PROX   H1145990   9.836  10.925  14.339
  113PROX   H1345991   9.954  10.806  14.378
  113PROX    C245992  10.021  10.935  14.216
  113PROX   H2145993  10.077  10.865  14.150
  113PROX    C345994  10.130  10.996  14.310
  113PROX   H3145995  10.082  11.064  14.383
  113PROX   H3245996  10.182  10.911  14.359
  113PROX   H3345997  10.204  11.057  14.253
  114PROX    O145998   9.958  11.033  14.125
  114PROX    C145999  10.033  11.061  14.010
  114PROX   H1146000  10.131  11.102  14.043
  114PROX   H1346001  10.038  10.968  13.949
  114PROX    C246002   9.960  11.178  13.924
  114PROX   H2146003   9.917  11.244  14.002
  114PROX    C346004   9.840  11.130  13.836
  114PROX   H3146005   9.786  11.227  13.828
  114PROX   H3246006   9.875  11.103  13.734
  114PROX   H3346007   9.781  11.050  13.885
  115PROX    O146008  10.057  11.238  13.849
  115PROX    C146009  10.008  11.357  13.790
  115PROX   H1146010   9.971  11.338  13.687
  115PROX   H1346011   9.935  11.402  13.861
  115PROX    C246012  10.118  11.461  13.768
  115PROX   H2146013  10.182  11.466  13.858
  115PROX    C346014  10.076  11.600  13.737
  115PROX   H3146015  10.168  11.660  13.721
  115PROX   H3246016  10.011  11.612  13.648
  115PROX   H3346017  10.032  11.635  13.833
  116PROX    O146018  10.195  11.424  13.648
  116PROX    C146019  10.271  11.310  13.666
  116PROX   H1146020  10.346  11.328  13.746
  116PROX   H1346021  10.213  11.217  13.684
  116PROX    C246022  10.346  11.285  13.541
  116PROX   H2146023  10.409  11.194  13.553
  116PROX    C346024  10.434  11.397  13.486
  116PROX   H3146025  10.533  11.395  13.535
  116PROX   H3246026  10.458  11.384  13.378
  116PROX   H3346027  10.381  11.494  13.500
  117PROX    O146028  10.258  11.267  13.432
  117PROX    C146029  10.225  11.130  13.417
  117PROX   H1146030  10.293  11.071  13.351
  117PROX   H1346031  10.214  11.085  13.518
  117PROX    C246032  10.084  11.115  13.358
  117PROX   H2146033  10.085  11.170  13.262
  117PROX    C346034   9.976  11.170  13.447
  117PROX   H3146035  10.020  11.267  13.477
  117PROX   H3246036   9.877  11.181  13.398
  117PROX   H3346037   9.974  11.108  13.539
  118PROX    O146038  10.051  10.976  13.336
  118PROX    C146039   9.962  10.960  13.224
  118PROX   H1146040   9.859  10.998  13.243
  118PROX   H1346041   9.995  11.011  13.131
  118PROX    C246042   9.943  10.812  13.185
  118PROX   H2146043   9.882  10.765  13.266
  118PROX    C346044  10.076  10.737  13.150
  118PROX   H3146045  10.164  10.746  13.217
  118PROX   H3246046  10.055  10.630  13.131
  118PROX   H3346047  10.113  10.781  13.055
  119PROX    O146048   9.873  10.803  13.062
  119PROX    C146049   9.785  10.686  13.067
  119PROX   H1146050   9.782  10.645  12.964
  119PROX   H1346051   9.828  10.605  13.128
  119PROX    C246052   9.640  10.705  13.118
  119PROX   H2146053   9.631  10.749  13.219
  119PROX    C346054   9.581  10.562  13.133
  119PROX   H3146055   9.564  10.525  13.030
  119PROX   H3246056   9.654  10.492  13.177
  119PROX   H3346057   9.487  10.556  13.191
  120PROX    O146058   9.563  10.781  13.027
  120PROX    C146059   9.603  10.919  13.028
  120PROX   H1146060   9.671  10.933  13.115
  120PROX   H1346061   9.640  10.950  12.927
  120PROX    C246062   9.490  11.016  13.056
  120PROX   H2146063   9.417  11.018  12.972
  120PROX    C346064   9.551  11.159  13.056
  120PROX   H3146065   9.492  11.240  13.105
  120PROX   H3246066   9.648  11.163  13.111
  120PROX   H3346067   9.575  11.188  12.952
  121PROX    O146068   9.436  10.972  13.172
  121PROX    C146069   9.339  11.048  13.239
  121PROX   H1146070   9.393  11.136  13.278
  121PROX   H1346071   9.263  11.071  13.160
  121PROX    C246072   9.273  10.964  13.348
  121PROX   H2146073   9.255  10.861  13.312
  121PROX    C346074   9.150  11.026  13.395
  121PROX   H3146075   9.178  11.127  13.430
  121PROX   H3246076   9.077  11.035  13.311
  121PROX   H3346077   9.098  10.968  13.474
  122PROX    O146078   9.364  10.957  13.463
  122PROX    C146079   9.467  10.854  13.453
  122PROX   H1146080   9.423  10.753  13.469
  122PROX   H1346081   9.498  10.855  13.347
  122PROX    C246082   9.592  10.877  13.543
  122PROX   H2146083   9.559  10.895  13.647
  122PROX    C346084   9.675  10.988  13.483
  122PROX   H3146085   9.614  11.080  13.467
  122PROX   H3246086   9.751  11.005  13.562
  122PROX   H3346087   9.727  10.947  13.394
  123PROX    O146088   9.672  10.767  13.540
  123PROX    C146089   9.632  10.657  13.620
  123PROX   H1146090   9.599  10.690  13.721
  123PROX   H1346091   9.547  10.601  13.576
  123PROX    C246092   9.743  10.553  13.622
  123PROX   H2146093   9.787  10.548  13.520
  123PROX    C346094   9.714  10.408  13.669
  123PROX   H3146095   9.803  10.343  13.651
  123PROX   H3246096   9.695  10.403  13.778
  123PROX   H3346097   9.631  10.365  13.608
  124PROX    O146098   9.836  10.598  13.715
  124PROX    C146099   9.978  10.572  13.677
  124PROX   H1146100  10.012  10.488  13.740
  124PROX   H1346101  10.000  10.545  13.572
  124PROX    C246102  10.058  10.703  13.706
  124PROX   H2146103  10.030  10.733  13.809
  124PROX    C346104  10.005  10.822  13.622
  124PROX   H3146105  10.004  10.793  13.514
  124PROX   H3246106   9.903  10.843  13.661
  124PROX   H3346107  10.078  10.906  13.625
  125PROX    O146108  10.200  10.673  13.705
  125PROX    C146109  10.274  10.780  13.754
  125PROX   H1146110  10.372  10.745  13.715
  125PROX   H1346111  10.251  10.877  13.704
  125PROX    C246112  10.281  10.778  13.910
  125PROX   H2146113  10.182  10.800  13.956
  125PROX    C346114  10.372  10.887  13.957
  125PROX   H3146115  10.476  10.874  13.921
  125PROX   H3246116  10.337  10.986  13.920
  125PROX   H3346117  10.382  10.895  14.068
  126PROX    O146118  10.320  10.654  13.968
  126PROX    C146119  10.233  10.542  13.947
  126PROX   H1146120  10.126  10.573  13.948
  126PROX   H1346121  10.255  10.511  13.842
  126PROX    C246122  10.255  10.423  14.035
  126PROX   H2146123  10.361  10.410  14.065
  126PROX    C346124  10.225  10.295  13.952
  126PROX   H3146125  10.183  10.210  14.009
  126PROX   H3246126  10.144  10.327  13.882
  126PROX   H3346127  10.316  10.263  13.896
  127PROX    O146128  10.170  10.429  14.149
  127PROX    C146129  10.209  10.524  14.251
  127PROX   H1146130  10.233  10.620  14.201
  127PROX   H1346131  10.129  10.540  14.327
  127PROX    C246132  10.337  10.472  14.333
  127PROX   H2146133  10.405  10.424  14.260
  127PROX    C346134  10.313  10.352  14.427
  127PROX   H3146135  10.252  10.271  14.381
  127PROX   H3246136  10.404  10.294  14.451
  127PROX   H3346137  10.256  10.393  14.513
  128PROX    O146138  10.408  10.575  14.404
  128PROX    C146139  10.485  10.652  14.312
  128PROX   H1146140  10.569  10.589  14.274
  128PROX   H1346141  10.417  10.684  14.231
  128PROX    C246142  10.544  10.783  14.378
  128PROX   H2146143  10.632  10.740  14.429
  128PROX    C346144  10.462  10.862  14.470
  128PROX   H3146145  10.413  10.948  14.418
  128PROX   H3246146  10.379  10.799  14.508
  128PROX   H3346147  10.527  10.907  14.548
  129PROX    O146148  10.593  10.866  14.269
  129PROX    C146149  10.719  10.836  14.221
  129PROX   H1146150  10.800  10.856  14.295
  129PROX   H1346151  10.725  10.731  14.185
  129PROX    C246152  10.759  10.934  14.106
  129PROX   H2146153  10.685  10.930  14.024
  129PROX    C346154  10.893  10.898  14.039
  129PROX   H3146155  10.976  10.941  14.099
  129PROX   H3246156  10.899  10.787  14.030
  129PROX   H3346157  10.897  10.940  13.936
  130PROX    O146158  10.772  11.068  14.162
  130PROX    C146159  10.647  11.139  14.147
  130PROX   H1146160  10.613  11.134  14.041
  130PROX   H1346161  10.574  11.077  14.203
  130PROX    C246162  10.648  11.279  14.206
  130PROX   H2146163  10.686  11.280  14.310
  130PROX    C346164  10.501  11.335  14.198
  130PROX   H3146165  10.429  11.257  14.230
  130PROX   H3246166  10.501  11.421  14.268
  130PROX   H3346167  10.473  11.368  14.096
  131PROX    O146168  10.732  11.354  14.117
  131PROX    C146169  10.738  11.489  14.163
  131PROX   H1146170  10.658  11.557  14.125
  131PROX   H1346171  10.727  11.505  14.273
  131PROX    C246172  10.881  11.555  14.128
  131PROX   H2146173  10.897  11.545  14.018
  131PROX    C346174  11.000  11.486  14.197
  131PROX   H3146175  11.089  11.546  14.168
  131PROX   H3246176  10.983  11.480  14.306
  131PROX   H3346177  11.008  11.381  14.162
  132PROX    O146178  10.887  11.693  14.162
  132PROX    C146179  10.827  11.781  14.068
  132PROX   H1146180  10.733  11.737  14.028
  132PROX   H1346181  10.805  11.874  14.124
  132PROX    C246182  10.924  11.819  13.955
  132PROX   H2146183  10.941  11.729  13.892
  132PROX    C346184  11.058  11.866  14.010
  132PROX   H3146185  11.113  11.787  14.066
  132PROX   H3246186  11.129  11.903  13.934
  132PROX   H3346187  11.040  11.952  14.079
  133PROX    O146188  10.882  11.931  13.884
  133PROX    C146189  10.748  11.913  13.826
  133PROX   H1146190  10.737  11.829  13.754
  133PROX   H1346191  10.666  11.909  13.901
  133PROX    C246192  10.712  12.039  13.749
  133PROX   H2146193  10.799  12.068  13.685
  133PROX    C346194  10.674  12.150  13.852
  133PROX   H3146195  10.623  12.104  13.939
  133PROX   H3246196  10.760  12.210  13.889
  133PROX   H3346197  10.598  12.218  13.808
  134PROX    O146198  10.597  11.999  13.676
  134PROX    C146199  10.565  12.097  13.572
  134PROX   H1146200  10.547  12.195  13.621
  134PROX   H1346201  10.644  12.107  13.495
  134PROX    C246202  10.431  12.069  13.509
  134PROX   H2146203  10.417  12.131  13.418
  134PROX    C346204  10.309  12.078  13.609
  134PROX   H3146205  10.208  12.073  13.563
  134PROX   H3246206  10.309  12.013  13.699
  134PROX   H3346207  10.306  12.182  13.648
  135PROX    O146208  10.430  11.927  13.469
  135PROX    C146209  10.336  11.886  13.371
  135PROX   H1146210  10.233  11.917  13.399
  135PROX   H1346211  10.374  11.937  13.281
  135PROX    C246212  10.332  11.733  13.363
  135PROX   H2146213  10.321  11.686  13.463
  135PROX    C346214  10.459  11.691  13.288
  135PROX   H3146215  10.547  11.719  13.350
  135PROX   H3246216  10.458  11.583  13.264
  135PROX   H3346217  10.467  11.741  13.189
  136PROX    O146218  10.220  11.696  13.285
  136PROX    C146219  10.122  11.625  13.359
  136PROX   H1146220  10.153  11.523  13.387
  136PROX   H1346221  10.088  11.684  13.447
  136PROX    C246222   9.997  11.595  13.265
  136PROX   H2146223   9.955  11.697  13.250
  136PROX    C346224   9.891  11.499  13.305
  136PROX   H3146225   9.940  11.417  13.361
  136PROX   H3246226   9.821  11.550  13.375
  136PROX   H3346227   9.821  11.463  13.226
  137PROX    O146228  10.043  11.554  13.134
  137PROX    C146229  10.130  11.439  13.132
  137PROX   H1146230  10.233  11.479  13.143
  137PROX   H1346231  10.118  11.367  13.216
  137PROX    C246232  10.110  11.364  12.997
  137PROX   H2146233  10.167  11.417  12.918
  137PROX    C346234   9.967  11.339  12.956
  137PROX   H3146235   9.977  11.290  12.857
  137PROX   H3246236   9.916  11.262  13.017
  137PROX   H3346237   9.911  11.435  12.945
  138PROX    O146238  10.168  11.236  13.020
  138PROX    C146239  10.303  11.249  13.055
  138PROX   H1146240  10.351  11.340  13.015
  138PROX   H1346241  10.306  11.254  13.166
  138PROX    C246242  10.393  11.129  13.003
  138PROX   H2146243  10.419  11.145  12.896
  138PROX    C346244  10.340  10.988  13.040
  138PROX   H3146245  10.343  10.959  13.147
  138PROX   H3246246  10.231  10.977  13.020
  138PROX   H3346247  10.395  10.908  12.986
  139PROX    O146248  10.511  11.118  13.083
  139PROX    C146249  10.613  11.219  13.078
  139PROX   H1146250  10.685  11.204  12.995
  139PROX   H1346251  10.563  11.316  13.057
  139PROX    C246252  10.682  11.235  13.214
  139PROX   H2146253  10.782  11.189  13.204
  139PROX    C346254  10.606  11.167  13.330
  139PROX   H3146255  10.498  11.193  13.327
  139PROX   H3246256  10.612  11.056  13.322
  139PROX   H3346257  10.654  11.215  13.418
  140PROX    O146258  10.697  11.376  13.246
  140PROX    C146259  10.817  11.428  13.181
  140PROX   H1146260  10.911  11.386  13.223
  140PROX   H1346261  10.808  11.407  13.072
  140PROX    C246262  10.842  11.582  13.188
  140PROX   H2146263  10.744  11.633  13.173
  140PROX    C346264  10.936  11.622  13.081
  140PROX   H3146265  10.938  11.732  13.066
  140PROX   H3246266  11.033  11.577  13.111
  140PROX   H3346267  10.905  11.575  12.986
  141PROX    O146268  10.909  11.619  13.301
  141PROX    C146269  10.815  11.635  13.411
  141PROX   H1146270  10.759  11.729  13.391
  141PROX   H1346271  10.733  11.562  13.394
  141PROX    C246272  10.881  11.628  13.550
  141PROX   H2146273  10.809  11.643  13.633
  141PROX    C346274  10.998  11.727  13.564
  141PROX   H3146275  11.041  11.697  13.662
  141PROX   H3246276  11.081  11.712  13.492
  141PROX   H3346277  10.963  11.832  13.559
  142PROX    O146278  10.950  11.501  13.564
  142PROX    C146279  10.865  11.381  13.578
  142PROX   H1146280  10.796  11.378  13.492
  142PROX   H1346281  10.928  11.291  13.563
  142PROX    C246282  10.787  11.378  13.712
  142PROX   H2146283  10.850  11.412  13.798
  142PROX    C346284  10.734  11.241  13.731
  142PROX   H3146285  10.808  11.162  13.754
  142PROX   H3246286  10.682  11.242  13.830
  142PROX   H3346287  10.664  11.212  13.650
  143PROX    O146288  10.667  11.459  13.713
  143PROX    C146289  10.638  11.515  13.846
  143PROX   H1146290  10.622  11.430  13.916
  143PROX   H1346291  10.720  11.580  13.883
  143PROX    C246292  10.503  11.592  13.840
  143PROX   H2146293  10.422  11.516  13.840
  143PROX    C346294  10.472  11.675  13.718
  143PROX   H3146295  10.542  11.762  13.718
  143PROX   H3246296  10.515  11.621  13.631
  143PROX   H3346297  10.364  11.689  13.696
  144PROX    O146298  10.495  11.661  13.958
  144PROX    C146299  10.396  11.764  13.960
  144PROX   H1146300  10.416  11.849  13.891
  144PROX   H1346301  10.292  11.729  13.947
  144PROX    C246302  10.412  11.826  14.102
  144PROX   H2146303  10.516  11.861  14.118
  144PROX    C346304  10.368  11.730  14.208
  144PROX   H3146305  10.449  11.659  14.235
  144PROX   H3246306  10.359  11.790  14.301
  144PROX   H3346307  10.269  11.682  14.192
  145PROX    O146308  10.319  11.930  14.108
  145PROX    C146309  10.365  12.059  14.067
  145PROX   H1146310  10.430  12.108  14.142
  145PROX   H1346311  10.416  12.052  13.969
  145PROX    C246312  10.243  12.153  14.056
  145PROX   H2146313  10.276  12.243  14.001
  145PROX    C346314  10.191  12.185  14.192
  145PROX   H3146315  10.134  12.279  14.205
  145PROX   H3246316  10.137  12.095  14.228
  145PROX   H3346317  10.273  12.191  14.267
  146PROX    O146318  10.146  12.090  13.979
  146PROX    C146319  10.041  12.177  13.924
  146PROX   H1146320  10.001  12.249  13.998
  146PROX   H1346321  10.085  12.227  13.835
  146PROX    C246322   9.928  12.082  13.878
  146PROX   H2146323   9.906  12.011  13.961
  146PROX    C346324   9.968  12.002  13.753
  146PROX   H3146325   9.886  11.927  13.751
  146PROX   H3246326   9.974  12.061  13.659
  146PROX   H3346327  10.063  11.949  13.776
  147PROX    O146328   9.811  12.164  13.852
  147PROX    C146329   9.693  12.087  13.851
  147PROX   H1146330   9.603  12.145  13.823
  147PROX   H1346331   9.700  12.003  13.778
  147PROX    C246332   9.646  12.020  13.985
  147PROX   H2146333   9.713  11.933  13.997
  147PROX    C346334   9.501  11.970  13.994
  147PROX   H3146335   9.427  12.052  14.002
  147PROX   H3246336   9.479  11.905  13.906
  147PROX   H3346337   9.494  11.894  14.074
  148PROX    O146338   9.668  12.116  14.091
  148PROX    C146339   9.720  12.060  14.210
  148PROX   H1146340   9.659  11.972  14.239
  148PROX   H1346341   9.817  12.023  14.171
  148PROX    C246342   9.748  12.153  14.330
  148PROX   H2146343   9.647  12.193  14.354
  148PROX    C346344   9.825  12.284  14.293
  148PROX   H3146345   9.924  12.242  14.265
  148PROX   H3246346   9.786  12.331  14.200
  148PROX   H3346347   9.824  12.357  14.377
  149PROX    O146348   9.806  12.085  14.438
  149PROX    C146349   9.781  12.150  14.563
  149PROX   H1146350   9.838  12.245  14.569
  149PROX   H1346351   9.672  12.169  14.555
  149PROX    C246352   9.823  12.062  14.689
  149PROX   H2146353   9.771  11.964  14.676
  149PROX    C346354   9.776  12.125  14.817
  149PROX   H3146355   9.671  12.161  14.828
  149PROX   H3246356   9.801  12.057  14.901
  149PROX   H3346357   9.842  12.213  14.830
  150PROX    O146358   9.960  12.050  14.689
  150PROX    C146359  10.010  11.924  14.728
  150PROX   H1146360  10.031  11.938  14.836
  150PROX   H1346361   9.938  11.842  14.706
  150PROX    C246362  10.142  11.888  14.654
  150PROX   H2146363  10.213  11.970  14.679
  150PROX    C346364  10.133  11.894  14.509
  150PROX   H3146365  10.064  11.975  14.478
  150PROX   H3246366  10.226  11.913  14.451
  150PROX   H3346367  10.095  11.795  14.475
  151PROX    O146368  10.192  11.765  14.701
  151PROX    C146369  10.283  11.768  14.810
  151PROX   H1146370  10.379  11.771  14.753
  151PROX   H1346371  10.275  11.866  14.861
  151PROX    C246372  10.277  11.642  14.891
  151PROX   H2146373  10.171  11.637  14.925
  151PROX    C346374  10.385  11.655  15.000
  151PROX   H3146375  10.484  11.688  14.961
  151PROX   H3246376  10.355  11.728  15.078
  151PROX   H3346377  10.400  11.555  15.045
  152PROX    O146378  10.301  11.533  14.805
  152PROX    C146379  10.295  11.411  14.873
  152PROX   H1146380  10.401  11.384  14.893
  152PROX   H1346381  10.242  11.432  14.968
  152PROX    C246382  10.217  11.297  14.795
  152PROX   H2146383  10.216  11.207  14.860
  152PROX    C346384  10.288  11.237  14.668
  152PROX   H3146385  10.277  11.303  14.580
  152PROX   H3246386  10.394  11.238  14.702
  152PROX   H3346387  10.251  11.136  14.641
  153PROX    O146388  10.088  11.339  14.748
  153PROX    C146389   9.978  11.346  14.849
  153PROX   H1146390   9.937  11.243  14.854
  153PROX   H1346391  10.015  11.386  14.946
  153PROX    C246392   9.864  11.441  14.793
  153PROX   H2146393   9.828  11.396  14.698
  153PROX    C346394   9.908  11.580  14.766
  153PROX   H3146395  10.009  11.575  14.721
  153PROX   H3246396   9.845  11.607  14.678
  153PROX   H3346397   9.896  11.644  14.856
  154PROX    O146398   9.760  11.441  14.887
  154PROX    C146399   9.634  11.376  14.840
  154PROX   H1146400   9.647  11.281  14.784
  154PROX   H1346401   9.556  11.364  14.918
  154PROX    C246402   9.553  11.475  14.750
  154PROX   H2146403   9.624  11.503  14.668
  154PROX    C346404   9.511  11.607  14.827
  154PROX   H3146405   9.489  11.690  14.756
  154PROX   H3246406   9.425  11.579  14.891
  154PROX   H3346407   9.600  11.633  14.888
  155PROX    O146408   9.439  11.412  14.702
  155PROX    C146409   9.418  11.442  14.559
  155PROX   H1146410   9.309  11.458  14.545
  155PROX   H1346411   9.467  11.540  14.546
  155PROX    C246412   9.475  11.327  14.467
  155PROX   H2146413   9.461  11.367  14.365
  155PROX    C346414   9.395  11.197  14.482
  155PROX   H3146415   9.432  11.143  14.571
  155PROX   H3246416   9.284  11.206  14.483
  155PROX   H3346417   9.423  11.135  14.394
  156PROX    O146418   9.611  11.321  14.487
  156PROX    C146419   9.680  11.246  14.398
  156PROX   H1146420   9.640  11.144  14.379
  156PROX   H1346421   9.681  11.302  14.302
  156PROX    C246422   9.834  11.224  14.432
  156PROX   H2146423   9.876  11.180  14.338
  156PROX    C346424   9.850  11.114  14.542
  156PROX   H3146425   9.811  11.149  14.640
  156PROX   H3246426   9.797  11.019  14.518
  156PROX   H3346427   9.959  11.091  14.549
  157PROX    O146428   9.884  11.348  14.468
  157PROX    C146429  10.015  11.377  14.413
  157PROX   H1146430  10.055  11.456  14.479
  157PROX   H1346431  10.084  11.290  14.413
  157PROX    C246432  10.008  11.439  14.269
  157PROX   H2146433   9.940  11.380  14.204
  157PROX    C346434  10.149  11.428  14.198
  157PROX   H3146435  10.148  11.478  14.099
  157PROX   H3246436  10.230  11.475  14.257
  157PROX   H3346437  10.165  11.318  14.188
  158PROX    O146438   9.965  11.575  14.272
  158PROX    C146439   9.847  11.600  14.359
  158PROX   H1146440   9.783  11.509  14.354
  158PROX   H1346441   9.871  11.615  14.467
  158PROX    C246442   9.761  11.720  14.305
  158PROX   H2146443   9.825  11.801  14.263
  158PROX    C346444   9.675  11.771  14.425
  158PROX   H3146445   9.599  11.845  14.392
  158PROX   H3246446   9.626  11.685  14.476
  158PROX   H3346447   9.741  11.822  14.498
  159PROX    O146448   9.681  11.675  14.203
  159PROX    C146449   9.754  11.627  14.087
  159PROX   H1146450   9.816  11.714  14.056
  159PROX   H1346451   9.823  11.542  14.106
  159PROX    C246452   9.655  11.569  13.984
  159PROX   H2146453   9.575  11.646  13.973
  159PROX    C346454   9.582  11.437  14.023
  159PROX   H3146455   9.506  11.404  13.949
  159PROX   H3246456   9.649  11.349  14.027
  159PROX   H3346457   9.542  11.448  14.126
  160PROX    O146458   9.709  11.555  13.855
  160PROX    C146459   9.613  11.535  13.748
  160PROX   H1146460   9.565  11.436  13.756
  160PROX   H1346461   9.534  11.612  13.753
  160PROX    C246462   9.689  11.552  13.614
  160PROX   H2146463   9.768  11.475  13.602
  160PROX    C346464   9.755  11.697  13.616
  160PROX   H3146465   9.821  11.703  13.706
  160PROX   H3246466   9.824  11.712  13.531
  160PROX   H3346467   9.677  11.776  13.626
  161PROX    O146468   9.591  11.547  13.516
  161PROX    C146469   9.549  11.407  13.492
  161PROX   H1146470   9.546  11.388  13.383
  161PROX   H1346471   9.622  11.341  13.543
  161PROX    C246472   9.405  11.390  13.551
  161PROX   H2146473   9.389  11.471  13.625
  161PROX    C346474   9.395  11.256  13.614
  161PROX   H3146475   9.395  11.176  13.537
  161PROX   H3246476   9.475  11.240  13.689
  161PROX   H3346477   9.300  11.251  13.671
  162PROX    O146478   9.311  11.400  13.445
  162PROX    C146479   9.185  11.442  13.489
  162PROX   H1146480   9.104  11.426  13.415
  162PROX   H1346481   9.152  11.389  13.581
  162PROX    C246482   9.186  11.595  13.515
  162PROX   H2146483   9.085  11.629  13.485
  162PROX    C346484   9.277  11.679  13.431
  162PROX   H3146485   9.383  11.671  13.462
  162PROX   H3246486   9.266  11.657  13.323
  162PROX   H3346487   9.241  11.783  13.442
  163PROX    O146488   9.183  11.620  13.657
  163PROX    C146489   9.195  11.761  13.686
  163PROX   H1146490   9.304  11.782  13.691
  163PROX   H1346491   9.129  11.821  13.619
  163PROX    C246492   9.148  11.801  13.833
  163PROX   H2146493   9.039  11.783  13.846
  163PROX    C346494   9.173  11.949  13.855
  163PROX   H3146495   9.100  12.014  13.803
  163PROX   H3246496   9.167  11.962  13.965
  163PROX   H3346497   9.281  11.964  13.833
  164PROX    O146498   9.231  11.737  13.932
  164PROX    C146499   9.180  11.609  13.969
  164PROX   H1146500   9.069  11.602  13.977
  164PROX   H1346501   9.227  11.532  13.904
  164PROX    C246502   9.240  11.573  14.111
  164PROX   H2146503   9.349  11.588  14.095
  164PROX    C346504   9.215  11.429  14.145
  164PROX   H3146505   9.256  11.366  14.063
  164PROX   H3246506   9.264  11.389  14.236
  164PROX   H3346507   9.105  11.417  14.158
  165PROX    O146508   9.189  11.665  14.206
  165PROX    C146509   9.249  11.657  14.326
  165PROX   H1146510   9.203  11.584  14.395
  165PROX   H1346511   9.356  11.641  14.305
  165PROX    C246512   9.227  11.800  14.390
  165PROX   H2146513   9.117  11.808  14.378
  165PROX    C346514   9.300  11.907  14.308
  165PROX   H3146515   9.258  11.930  14.208
  165PROX   H3246516   9.325  12.003  14.358
  165PROX   H3346517   9.396  11.854  14.293
  166ETHO    O146518   9.266  11.799  14.531
  166ETHO    C146519   9.208  11.910  14.599
  166ETHO   H1146520   9.103  11.937  14.574
  166ETHO   H1346521   9.264  12.003  14.574
  166ETHO    C246522   9.217  11.887  14.753
  166ETHO   H2146523   9.217  11.988  14.800
  166ETHO   H2346524   9.315  11.846  14.786
  167ETHO    O146525   9.113  11.806  14.820
  167ETHO    C146526   9.094  11.673  14.766
  167ETHO   H1146527   8.999  11.676  14.709
  167ETHO   H1346528   9.175  11.650  14.693
  167ETHO    C246529   9.124  11.556  14.871
  167ETHO   H2146530   9.223  11.583  14.912
  167ETHO   H2346531   9.121  11.460  14.815
  168ETHO    O146532   9.026  11.555  14.979
  168ETHO    C146533   9.015  11.440  15.046
  168ETHO   H1146534   9.106  11.418  15.106
  168ETHO   H1346535   8.980  11.363  14.974
  168ETHO    C246536   8.919  11.457  15.162
  168ETHO   H2146537   8.887  11.563  15.170
  168ETHO   H2346538   8.976  11.440  15.255
  169ETHO    O146539   8.805  11.371  15.172
  169ETHO    C146540   8.712  11.404  15.067
  169ETHO   H1146541   8.726  11.510  15.036
  169ETHO   H1346542   8.731  11.331  14.985
  169ETHO    C246543   8.567  11.394  15.112
  169ETHO   H2146544   8.545  11.301  15.169
  169ETHO   H2346545   8.491  11.398  15.031
  170ETHO    O146546   8.542  11.490  15.218
  170ETHO    C146547   8.441  11.446  15.304
  170ETHO   H1146548   8.476  11.358  15.361
  170ETHO   H1346549   8.354  11.422  15.239
  170ETHO    C246550   8.402  11.557  15.403
  170ETHO   H2146551   8.393  11.652  15.347
  170ETHO   H2346552   8.481  11.555  15.482
  171ETHO    O146553   8.283  11.531  15.473
  171ETHO    C146554   8.257  11.623  15.579
  171ETHO   H1146555   8.344  11.644  15.645
  171ETHO   H1346556   8.242  11.724  15.534
  171ETHO    C246557   8.138  11.581  15.669
  171ETHO   H2146558   8.060  11.523  15.614
  171ETHO   H2346559   8.077  11.666  15.706
  172ETHO    O146560   8.199  11.525  15.790
  172ETHO    C146561   8.095  11.484  15.885
  172ETHO   H1146562   8.028  11.416  15.828
  172ETHO   H1346563   8.032  11.574  15.906
  172ETHO    C246564   8.152  11.425  16.019
  172ETHO   H2146565   8.231  11.351  15.998
  172ETHO   H2346566   8.074  11.367  16.073
  173ETHO    O146567   8.206  11.524  16.107
  173ETHO    C146568   8.108  11.609  16.170
  173ETHO   H1146569   8.171  11.684  16.221
  173ETHO   H1346570   8.036  11.652  16.097
  173ETHO    C246571   8.028  11.539  16.276
  173ETHO   H2146572   8.093  11.488  16.350
  173ETHO   H2346573   7.969  11.618  16.328
  174ETHO    O146574   7.922  11.459  16.225
  174ETHO    C146575   7.835  11.399  16.329
  174ETHO   H1146576   7.817  11.476  16.407
  174ETHO   H1346577   7.740  11.387  16.273
  174ETHO    C246578   7.888  11.268  16.390
  174ETHO   H2146579   7.993  11.277  16.426
  174ETHO   H2346580   7.893  11.196  16.306
  175ETHO    O146581   7.796  11.231  16.491
  175ETHO    C146582   7.844  11.110  16.551
  175ETHO   H1146583   7.874  11.038  16.471
  175ETHO   H1346584   7.939  11.136  16.603
  175ETHO    C246585   7.739  11.031  16.628
  175ETHO   H2146586   7.703  11.113  16.693
  175ETHO   H2346587   7.785  10.946  16.684
  176ETHO    O146588   7.629  10.976  16.556
  176ETHO    C146589   7.538  10.894  16.634
  176ETHO   H1146590   7.465  10.866  16.555
  176ETHO   H1346591   7.588  10.806  16.679
  176ETHO    C246592   7.456  10.976  16.742
  176ETHO   H2146593   7.423  11.073  16.700
  176ETHO   H2346594   7.512  10.995  16.836
  177ETHO    O146595   7.339  10.895  16.760
  177ETHO    C146596   7.251  10.949  16.858
  177ETHO   H1146597   7.218  11.050  16.826
  177ETHO   H1346598   7.312  10.957  16.950
  177ETHO    C246599   7.138  10.850  16.865
  177ETHO   H2146600   7.181  10.752  16.894
  177ETHO   H2346601   7.078  10.841  16.772
  178ETHO    O146602   7.063  10.886  16.981
  178ETHO    C146603   6.951  10.806  16.984
  178ETHO   H1146604   6.980  10.699  16.979
  178ETHO   H1346605   6.929  10.801  17.092
  178ETHO    C246606   6.837  10.849  16.902
  178ETHO   H2146607   6.764  10.768  16.885
  178ETHO   H2346608   6.863  10.875  16.797
  179ETHO    O146609   6.768  10.956  16.959
  179ETHO    C146610   6.681  11.018  16.866
  179ETHO   H1146611   6.589  10.955  16.873
  179ETHO   H1346612   6.724  11.017  16.764
  179ETHO    C246613   6.664  11.157  16.920
  179ETHO   H2146614   6.605  11.208  16.841
  179ETHO   H2346615   6.755  11.210  16.955
  180ETHO    O146616   6.576  11.166  17.037
  180ETHO    C146617   6.566  11.298  17.083
  180ETHO   H1146618   6.556  11.372  17.000
  180ETHO   H1346619   6.467  11.303  17.134
  180ETHO    C246620   6.679  11.342  17.184
  180ETHO   H2146621   6.673  11.452  17.200
  180ETHO   H2346622   6.777  11.317  17.138
  181ETHO    O146623   6.668  11.260  17.298
  181ETHO    C146624   6.764  11.301  17.391
  181ETHO   H1146625   6.861  11.332  17.347
  181ETHO   H1346626   6.788  11.212  17.454
  181ETHO    C246627   6.712  11.417  17.479
  181ETHO   H2146628   6.674  11.500  17.415
  181ETHO   H2346629   6.791  11.455  17.547
  182ETHO    O146630   6.614  11.352  17.554
  182ETHO    C146631   6.527  11.439  17.624
  182ETHO   H1146632   6.587  11.518  17.675
  182ETHO   H1346633   6.467  11.493  17.549
  182ETHO    C246634   6.427  11.375  17.721
  182ETHO   H2146635   6.392  11.283  17.670
  182ETHO   H2346636   6.341  11.446  17.729
  183ETHO    O146637   6.483  11.358  17.846
  183ETHO    C146638   6.420  11.251  17.914
  183ETHO   H1146639   6.474  11.161  17.877
  183ETHO   H1346640   6.312  11.241  17.893
  183ETHO    C246641   6.453  11.262  18.068
  183ETHO   H2146642   6.563  11.265  18.084
  183ETHO   H2346643   6.429  11.170  18.126
  184ETHO    O146644   6.393  11.381  18.120
  184ETHO    C146645   6.433  11.392  18.251
  184ETHO   H1146646   6.398  11.304  18.310
  184ETHO   H1346647   6.544  11.398  18.248
  184ETHO    C246648   6.371  11.520  18.306
  184ETHO   H2146649   6.392  11.524  18.415
  184ETHO   H2346650   6.261  11.512  18.304
  185ETHO    O146651   6.424  11.635  18.242
  185ETHO    C146652   6.389  11.754  18.311
  185ETHO   H1146653   6.329  11.730  18.401
  185ETHO   H1346654   6.485  11.802  18.340
  185ETHO    C246655   6.324  11.855  18.215
  185ETHO   H2146656   6.383  11.864  18.121
  185ETHO   H2346657   6.310  11.955  18.261
  186ETHO    O146658   6.193  11.814  18.171
  186ETHO    C146659   6.139  11.905  18.081
  186ETHO   H1146660   6.177  12.007  18.104
  186ETHO   H1346661   6.176  11.879  17.979
  186ETHO    C246662   5.992  11.879  18.080
  186ETHO   H2146663   5.963  11.776  18.052
  186ETHO   H2346664   5.953  11.935  17.992
  187ETHO    O146665   5.931  11.903  18.203
  187ETHO    C146666   5.795  11.934  18.188
  187ETHO   H1146667   5.782  12.017  18.115
  187ETHO   H1346668   5.749  11.840  18.150
  187ETHO    C246669   5.735  11.975  18.315
  187ETHO   H2146670   5.774  12.072  18.351
  187ETHO   H2346671   5.751  11.902  18.397
  188ETHO    O146672   5.595  11.986  18.301
  188ETHO    C146673   5.529  12.002  18.424
  188ETHO   H1146674   5.584  12.083  18.477
  188ETHO   H1346675   5.541  11.915  18.491
  188ETHO    C246676   5.381  12.062  18.418
  188ETHO   H2146677   5.373  12.134  18.334
  188ETHO   H2346678   5.365  12.118  18.513
  189ETHO    O146679   5.284  11.952  18.397
  189ETHO    C146680   5.155  12.006  18.363
  189ETHO   H1146681   5.136  12.093  18.429
  189ETHO   H1346682   5.166  12.049  18.261
  189ETHO    C246683   5.047  11.905  18.375
  189ETHO   H2146684   5.075  11.817  18.314
  189ETHO   H2346685   4.951  11.947  18.339
  190ETHO    O146686   5.020  11.870  18.512
  190ETHO    C146687   4.948  11.971  18.586
  190ETHO   H1146688   4.866  12.011  18.522
  190ETHO   H1346689   5.008  12.063  18.602
  190ETHO    C246690   4.880  11.922  18.714
  190ETHO   H2146691   4.797  11.852  18.691
  190ETHO   H2346692   4.835  12.011  18.763
  191ETHO    O146693   4.980  11.875  18.803
  191ETHO    C146694   4.940  11.890  18.935
  191ETHO   H1146695   5.039  11.879  18.985
  191ETHO   H1346696   4.908  11.996  18.951
  191ETHO    C246697   4.832  11.791  18.995
  191ETHO   H2146698   4.740  11.811  18.936
  191ETHO   H2346699   4.818  11.820  19.101
  192ETHO    O146700   4.858  11.653  18.983
  192ETHO    C146701   4.961  11.615  19.075
  192ETHO   H1146702   4.933  11.638  19.180
  192ETHO   H1346703   5.055  11.665  19.046
  192ETHO    C246704   4.984  11.465  19.067
  192ETHO   H2146705   5.061  11.439  19.143
  192ETHO   H2346706   5.025  11.427  18.971
  193ETHO    O146707   4.869  11.378  19.086
  193ETHO    C146708   4.904  11.244  19.113
  193ETHO   H1146709   4.945  11.202  19.019
  193ETHO   H1346710   4.988  11.235  19.185
  193ETHO    C246711   4.792  11.164  19.176
  193ETHO   H2146712   4.753  11.226  19.260
  193ETHO   H2346713   4.832  11.069  19.219
  194ETHO    O146714   4.694  11.127  19.090
  194ETHO    C146715   4.596  11.056  19.168
  194ETHO   H1146716   4.549  11.121  19.244
  194ETHO   H1346717   4.638  10.960  19.204
  194ETHO    C246718   4.472  11.016  19.097
  194ETHO   H2146719   4.428  11.109  19.056
  194ETHO   H2346720   4.404  10.968  19.171
  195ETHO    O146721   4.500  10.920  19.003
  195ETHO    C146722   4.381  10.882  18.927
  195ETHO   H1146723   4.295  10.862  18.995
  195ETHO   H1346724   4.341  10.957  18.855
  195ETHO    C246725   4.402  10.753  18.855
  195ETHO   H2146726   4.497  10.750  18.798
  195ETHO   H2346727   4.314  10.740  18.788
  196ETHO    O146728   4.411  10.654  18.957
  196ETHO    C146729   4.413  10.520  18.895
  196ETHO   H1146730   4.394  10.447  18.977
  196ETHO   H1346731   4.327  10.512  18.825
  196ETHO    C246732   4.540  10.488  18.822
  196ETHO   H2146733   4.541  10.556  18.735
  196ETHO   H2346734   4.532  10.387  18.776
  197ETHO    O146735   4.661  10.492  18.900
  197ETHO    C146736   4.774  10.530  18.829
  197ETHO   H1146737   4.778  10.476  18.733
  197ETHO   H1346738   4.754  10.638  18.810
  197ETHO    C246739   4.902  10.526  18.910
  197ETHO   H2146740   4.889  10.587  19.002
  197ETHO   H2346741   4.978  10.591  18.861
  198ETHO    O146742   4.957  10.397  18.937
  198ETHO    C146743   5.059  10.411  19.029
  198ETHO   H1146744   5.134  10.485  18.994
  198ETHO   H1346745   5.010  10.445  19.123
  198ETHO    C246746   5.145  10.275  19.066
  198ETHO   H2146747   5.067  10.198  19.081
  198ETHO   H2346748   5.203  10.299  19.159
  199ETHO    O146749   5.224  10.245  18.951
  199ETHO    C146750   5.161  10.135  18.884
  199ETHO   H1146751   5.053  10.161  18.888
  199ETHO   H1346752   5.173  10.045  18.947
  199ETHO    C246753   5.202  10.129  18.730
  199ETHO   H2146754   5.180  10.222  18.674
  199ETHO   H2346755   5.124  10.064  18.684
  200ETHO    O146756   5.335  10.086  18.708
  200ETHO    C146757   5.367   9.960  18.759
  200ETHO   H1146758   5.368   9.981  18.868
  200ETHO   H1346759   5.294   9.881  18.729
  200ETHO    C246760   5.511   9.921  18.717
  200ETHO   H2146761   5.537   9.833  18.779
  200ETHO   H2346762   5.588   9.996  18.748
  201ETHO    O146763   5.530   9.892  18.582
  201ETHO    C146764   5.672   9.889  18.547
  201ETHO   H1146765   5.716   9.815  18.617
  201ETHO   H1346766   5.718   9.990  18.552
  201ETHO    C246767   5.687   9.851  18.405
  201ETHO   H2146768   5.602   9.782  18.385
  201ETHO   H2346769   5.786   9.810  18.378
  202ETHO    O146770   5.663   9.961  18.309
  202ETHO    C146771   5.536  10.018  18.300
  202ETHO   H1146772   5.450   9.948  18.288
  202ETHO   H1346773   5.526  10.077  18.394
  202ETHO    C246774   5.520  10.114  18.185
  202ETHO   H2146775   5.413  10.143  18.177
  202ETHO   H2346776   5.555  10.070  18.089
  203ETHO    O146777   5.585  10.240  18.222
  203ETHO    C146778   5.724  10.236  18.191
  203ETHO   H1146779   5.751  10.163  18.111
  203ETHO   H1346780   5.777  10.201  18.282
  203ETHO    C246781   5.761  10.379  18.156
  203ETHO   H2146782   5.757  10.447  18.244
  203ETHO   H2346783   5.680  10.411  18.086
  204ETHO    O146784   5.882  10.387  18.085
  204ETHO    C146785   5.907  10.521  18.033
  204ETHO   H1146786   5.840  10.527  17.945
  204ETHO   H1346787   5.875  10.593  18.111
  204ETHO    C246788   6.057  10.540  17.981
  204ETHO   H2146789   6.065  10.638  17.931
  204ETHO   H2346790   6.078  10.461  17.905
  205ETHO    O146791   6.159  10.532  18.079
  205ETHO    C146792   6.207  10.661  18.124
  205ETHO   H1146793   6.122  10.725  18.157
  205ETHO   H1346794   6.272  10.705  18.045
  205ETHO    C246795   6.306  10.645  18.241
  205ETHO   H2146796   6.347  10.736  18.290
  205ETHO   H2346797   6.399  10.593  18.210
  206ETHO    O146798   6.241  10.564  18.339
  206ETHO    C146799   6.148  10.636  18.423
  206ETHO   H1146800   6.202  10.688  18.505
  206ETHO   H1346801   6.100  10.715  18.362
  206ETHO    C246802   6.030  10.548  18.478
  206ETHO   H2146803   5.959  10.622  18.521
  206ETHO   H2346804   5.987  10.505  18.385
  207ETHO    O146805   6.082  10.459  18.577
  207ETHO    C146806   5.978  10.393  18.657
  207ETHO   H1146807   5.918  10.480  18.690
  207ETHO   H1346808   6.018  10.339  18.745
  207ETHO    C246809   5.874  10.299  18.573
  207ETHO   H2146810   5.839  10.351  18.482
  207ETHO   H2346811   5.780  10.296  18.631
  208ETHO    O146812   5.912  10.167  18.557
  208ETHO    C146813   6.020  10.158  18.460
  208ETHO   H1146814   5.990  10.214  18.369
  208ETHO   H1346815   6.114  10.201  18.501
  208ETHO    C246816   6.037  10.011  18.424
  208ETHO   H2146817   6.124  10.008  18.355
  208ETHO   H2346818   5.947   9.979  18.369
  209ETHO    O146819   6.053   9.914  18.526
  209ETHO    C146820   6.072   9.781  18.468
  209ETHO   H1146821   6.149   9.778  18.388
  209ETHO   H1346822   5.976   9.735  18.432
  209ETHO    C246823   6.122   9.680  18.581
  209ETHO   H2146824   6.126   9.577  18.538
  209ETHO   H2346825   6.057   9.684  18.671
  210ETHO    O146826   6.251   9.715  18.625
  210ETHO    C146827   6.310   9.622  18.712
  210ETHO   H1146828   6.292   9.520  18.671
  210ETHO   H1346829   6.420   9.638  18.707
  210ETHO    C246830   6.262   9.638  18.858
  210ETHO   H2146831   6.310   9.552  18.909
  210ETHO   H2346832   6.151   9.629  18.868
  211ETHO    O146833   6.288   9.757  18.921
  211ETHO    C146834   6.334   9.754  19.056
  211ETHO   H1146835   6.264   9.697  19.120
  211ETHO   H1346836   6.430   9.699  19.054
  211ETHO    C246837   6.369   9.899  19.094
  211ETHO   H2146838   6.402   9.895  19.200
  211ETHO   H2346839   6.277   9.962  19.085
  212ETHO    O146840   6.466   9.965  19.014
  212ETHO    C146841   6.485  10.103  19.054
  212ETHO   H1146842   6.382  10.140  19.075
  212ETHO   H1346843   6.541  10.093  19.149
  212ETHO    C246844   6.549  10.195  18.936
  212ETHO   H2146845   6.541  10.290  18.993
  212ETHO   H2346846   6.492  10.191  18.840
  213ETHO    O146847   6.683  10.158  18.925
  213ETHO    C146848   6.743  10.224  18.819
  213ETHO   H1146849   6.679  10.235  18.728
  213ETHO   H1346850   6.767  10.329  18.846
  213ETHO    C246851   6.878  10.159  18.796
  213ETHO   H2146852   6.935  10.150  18.891
  213ETHO   H2346853   6.935  10.207  18.713
  214ETHO    O146854   6.853  10.030  18.750
  214ETHO    C146855   6.973   9.977  18.691
  214ETHO   H1146856   7.044   9.983  18.775
  214ETHO   H1346857   7.001  10.040  18.604
  214ETHO    C246858   6.955   9.831  18.646
  214ETHO   H2146859   6.912   9.768  18.726
  214ETHO   H2346860   7.056   9.787  18.626
  215ETHO    O146861   6.889   9.828  18.521
  215ETHO    C146862   6.747   9.820  18.535
  215ETHO   H1146863   6.719   9.739  18.606
  215ETHO   H1346864   6.706   9.919  18.567
  215ETHO    C246865   6.680   9.788  18.393
  215ETHO   H2146866   6.573   9.772  18.416
  215ETHO   H2346867   6.720   9.691  18.357
  216ETHO    O146868   6.694   9.879  18.287
  216ETHO    C146869   6.614   9.990  18.309
  216ETHO   H1146870   6.646  10.052  18.396
  216ETHO   H1346871   6.516   9.952  18.346
  216ETHO    C246872   6.592  10.089  18.186
  216ETHO   H2146873   6.515  10.165  18.209
  216ETHO   H2346874   6.553  10.031  18.099
  217ETHO    O146875   6.716  10.142  18.156
  217ETHO    C146876   6.717  10.210  18.031
  217ETHO   H1146877   6.706  10.137  17.948
  217ETHO   H1346878   6.633  10.282  18.023
  217ETHO    C246879   6.852  10.272  18.021
  217ETHO   H2146880   6.878  10.329  18.113
  217ETHO   H2346881   6.849  10.349  17.942
  218ETHO    O146882   6.965  10.188  17.997
  218ETHO    C146883   7.092  10.249  18.022
  218ETHO   H1146884   7.120  10.234  18.129
  218ETHO   H1346885   7.088  10.347  17.972
  218ETHO    C246886   7.199  10.153  17.955
  218ETHO   H2146887   7.162  10.050  17.979
  218ETHO   H2346888   7.304  10.154  17.989
  219ETHO    O146889   7.202  10.179  17.816
  219ETHO    C146890   7.272  10.078  17.752
  219ETHO   H1146891   7.378  10.087  17.783
  219ETHO   H1346892   7.221   9.982  17.778
  219ETHO    C246893   7.258  10.099  17.600
  219ETHO   H2146894   7.342  10.045  17.550
  219ETHO   H2346895   7.290  10.203  17.576
  220ETHO    O146896   7.123  10.064  17.566
  220ETHO    C146897   7.120  10.056  17.426
  220ETHO   H1146898   7.067   9.969  17.384
  220ETHO   H1346899   7.222  10.064  17.382
  220ETHO    C246900   7.033  10.175  17.369
  220ETHO   H2146901   6.932  10.175  17.415
  220ETHO   H2346902   7.030  10.161  17.259
  221ETHO    O146903   7.105  10.297  17.399
  221ETHO    C146904   7.027  10.410  17.383
  221ETHO   H1146905   6.996  10.415  17.277
  221ETHO   H1346906   6.929  10.400  17.435
  221ETHO    C246907   7.076  10.547  17.431
  221ETHO   H2146908   7.086  10.535  17.541
  221ETHO   H2346909   7.008  10.634  17.418
  222ETHO    O146910   7.201  10.583  17.374
  222ETHO    C146911   7.178  10.692  17.286
  222ETHO   H1146912   7.097  10.661  17.216
  222ETHO   H1346913   7.148  10.783  17.343
  222ETHO    C246914   7.308  10.702  17.204
  222ETHO   H2146915   7.396  10.723  17.267
  222ETHO   H2346916   7.305  10.786  17.131
  223ETHO    O146917   7.334  10.589  17.123
  223ETHO    C146918   7.433  10.616  17.020
  223ETHO   H1146919   7.404  10.710  16.967
  223ETHO   H1346920   7.535  10.637  17.057
  223ETHO    C246921   7.461  10.506  16.912
  223ETHO   H2146922   7.485  10.404  16.951
  223ETHO   H2346923   7.548  10.525  16.845
  224ETHO    O146924   7.345  10.498  16.833
  224ETHO    C146925   7.370  10.462  16.690
  224ETHO   H1146926   7.277  10.489  16.635
  224ETHO   H1346927   7.449  10.531  16.655
  224ETHO    C246928   7.406  10.314  16.665
  224ETHO   H2146929   7.390  10.288  16.558
  224ETHO   H2346930   7.350  10.241  16.729
  225ETHO    O146931   7.549  10.302  16.690
  225ETHO    C146932   7.599  10.167  16.708
  225ETHO   H1146933   7.554  10.125  16.800
  225ETHO   H1346934   7.708  10.164  16.727
  225ETHO    C246935   7.566  10.074  16.591
  225ETHO   H2146936   7.466  10.101  16.551
  225ETHO   H2346937   7.569   9.971  16.633
  226ETHO    O146938   7.670  10.069  16.490
  226ETHO    C146939   7.669  10.177  16.403
  226ETHO   H1146940   7.569  10.182  16.355
  226ETHO   H1346941   7.684  10.269  16.462
  226ETHO    C246942   7.788  10.173  16.301
  226ETHO   H2146943   7.878  10.146  16.360
  226ETHO   H2346944   7.803  10.275  16.261
  227ETHO    O146945   7.764  10.075  16.208
  227ETHO    C146946   7.698  10.135  16.100
  227ETHO   H1146947   7.768  10.208  16.055
  227ETHO   H1346948   7.606  10.188  16.131
  227ETHO    C246949   7.650  10.031  15.987
  227ETHO   H2146950   7.738   9.969  15.961
  227ETHO   H2346951   7.615  10.079  15.893
  228ETHO    O146952   7.542   9.957  16.044
  228ETHO    C146953   7.542   9.825  15.993
  228ETHO   H1146954   7.541   9.823  15.881
  228ETHO   H1346955   7.637   9.778  16.027
  228ETHO    C246956   7.432   9.740  16.061
  228ETHO   H2146957   7.419   9.766  16.169
  228ETHO   H2346958   7.450   9.630  16.062
  229ETHO    O146959   7.307   9.767  16.000
  229ETHO    C146960   7.207   9.697  16.069
  229ETHO   H1146961   7.251   9.626  16.143
  229ETHO   H1346962   7.145   9.647  15.992
  229ETHO    C246963   7.108   9.792  16.148
  229ETHO   H2146964   7.167   9.854  16.219
  229ETHO   H2346965   7.036   9.726  16.201
  230ETHO    O146966   7.023   9.869  16.062
  230ETHO    C146967   6.907   9.925  16.128
  230ETHO   H1146968   6.853   9.967  16.040
  230ETHO   H1346969   6.843   9.839  16.159
  230ETHO    C246970   6.948  10.031  16.237
  230ETHO   H2146971   6.982  10.123  16.185
  230ETHO   H2346972   7.031   9.992  16.299
  231ETHO    O146973   6.849  10.071  16.331
  231ETHO    C146974   6.907  10.117  16.452
  231ETHO   H1146975   6.992  10.187  16.436
  231ETHO   H1346976   6.946  10.030  16.509
  231ETHO    C246977   6.795  10.178  16.532
  231ETHO   H2146978   6.762  10.269  16.477
  231ETHO   H2346979   6.835  10.209  16.631
  232ETHO    O146980   6.697  10.079  16.565
  232ETHO    C146981   6.614  10.128  16.673
  232ETHO   H1146982   6.688  10.131  16.756
  232ETHO   H1346983   6.575  10.218  16.620
  232ETHO    C246984   6.495  10.039  16.706
  232ETHO   H2146985   6.430  10.027  16.617
  232ETHO   H2346986   6.440  10.095  16.785
  233ETHO    O146987   6.524   9.913  16.762
  233ETHO    C146988   6.416   9.852  16.826
  233ETHO   H1146989   6.366   9.919  16.899
  233ETHO   H1346990   6.334   9.830  16.754
  233ETHO    C246991   6.472   9.727  16.888
  233ETHO   H2146992   6.516   9.656  16.815
  233ETHO   H2346993   6.387   9.677  16.939
  234ETHO    O146994   6.569   9.745  16.993
  234ETHO    C146995   6.615   9.624  17.044
  234ETHO   H1146996   6.554   9.542  17.000
  234ETHO   H1346997   6.717   9.598  17.008
  234ETHO    C246998   6.613   9.630  17.199
  234ETHO   H2146999   6.584   9.733  17.228
  234ETHO   H2347000   6.714   9.596  17.231
  235ETHO    O147001   6.507   9.546  17.230
  235ETHO    C147002   6.384   9.618  17.247
  235ETHO   H1147003   6.381   9.701  17.174
  235ETHO   H1347004   6.293   9.555  17.236
  235ETHO    C247005   6.381   9.689  17.390
  235ETHO   H2147006   6.284   9.744  17.392
  235ETHO   H2347007   6.468   9.757  17.404
  236ETHO    O147008   6.390   9.594  17.494
  236ETHO    C147009   6.392   9.659  17.615
  236ETHO   H1147010   6.476   9.732  17.615
  236ETHO   H1347011   6.406   9.580  17.692
  236ETHO    C247012   6.271   9.740  17.661
  236ETHO   H2147013   6.241   9.825  17.596
  236ETHO   H2347014   6.291   9.784  17.762
  237ETHO    O147015   6.146   9.667  17.663
  237ETHO    C147016   6.045   9.728  17.744
  237ETHO   H1147017   6.054   9.718  17.854
  237ETHO   H1347018   6.061   9.831  17.706
  237ETHO    C247019   5.897   9.692  17.715
  237ETHO   H2147020   5.876   9.677  17.607
  237ETHO   H2347021   5.832   9.776  17.748
  238ETHO    O147022   5.844   9.584  17.791
  238ETHO    C147023   5.910   9.464  17.772
  238ETHO   H1147024   6.010   9.462  17.819
  238ETHO   H1347025   5.903   9.425  17.668
  238ETHO    C247026   5.824   9.362  17.860
  238ETHO   H2147027   5.836   9.376  17.970
  238ETHO   H2347028   5.872   9.264  17.835
  239ETHO    O147029   5.683   9.354  17.825
  239ETHO    C147030   5.610   9.293  17.932
  239ETHO   H1147031   5.624   9.183  17.929
  239ETHO   H1347032   5.653   9.338  18.024
  239ETHO    C247033   5.454   9.315  17.938
  239ETHO   H2147034   5.428   9.410  17.990
  239ETHO   H2347035   5.429   9.340  17.832
  240ETHO    O147036   5.369   9.212  17.987
  240ETHO    C147037   5.229   9.257  17.989
  240ETHO   H1147038   5.191   9.248  17.885
  240ETHO   H1347039   5.225   9.366  18.010
  240ETHO    C247040   5.139   9.172  18.082
  240ETHO   H2147041   5.151   9.064  18.058
  240ETHO   H2347042   5.033   9.187  18.054
  241ETHO    O147043   5.163   9.206  18.220
  241ETHO    C147044   5.076   9.308  18.258
  241ETHO   H1147045   5.075   9.392  18.185
  241ETHO   H1347046   4.975   9.264  18.269
  241ETHO    C247047   5.116   9.357  18.388
  241ETHO   H2147048   5.046   9.438  18.419
  241ETHO   H2347049   5.213   9.410  18.394
  242ETHO    O147050   5.112   9.256  18.489
  242ETHO    C147051   5.133   9.303  18.617
  242ETHO   H1147052   5.034   9.327  18.660
  242ETHO   H1347053   5.190   9.399  18.621
  242ETHO    C247054   5.226   9.209  18.695
  242ETHO   H2147055   5.326   9.247  18.663
  242ETHO   H2347056   5.187   9.108  18.673
  243ETHO    O147057   5.215   9.223  18.836
  243ETHO    C147058   5.337   9.242  18.902
  243ETHO   H1147059   5.412   9.290  18.836
  243ETHO   H1347060   5.324   9.293  19.000
  243ETHO    C247061   5.401   9.112  18.942
  243ETHO   H2147062   5.511   9.127  18.950
  243ETHO   H2347063   5.383   9.033  18.866
  244ETHO    O147064   5.353   9.076  19.070
  244ETHO    C147065   5.340   8.937  19.081
  244ETHO   H1147066   5.434   8.891  19.044
  244ETHO   H1347067   5.255   8.908  19.015
  244ETHO    C247068   5.311   8.905  19.227
  244ETHO   H2147069   5.379   8.956  19.298
  244ETHO   H2347070   5.327   8.795  19.235
  245ETHO    O147071   5.174   8.922  19.263
  245ETHO    C147072   5.150   8.919  19.400
  245ETHO   H1147073   5.166   8.814  19.432
  245ETHO   H1347074   5.224   8.985  19.451
  245ETHO    C247075   5.008   8.933  19.451
  245ETHO   H2147076   4.966   9.023  19.401
  245ETHO   H2347077   5.000   8.951  19.560
  246ETHO    O147078   4.919   8.823  19.420
  246ETHO    C147079   4.787   8.834  19.478
  246ETHO   H1147080   4.732   8.925  19.447
  246ETHO   H1347081   4.802   8.846  19.587
  246ETHO    C247082   4.683   8.717  19.467
  246ETHO   H2147083   4.592   8.720  19.531
  246ETHO   H2347084   4.736   8.626  19.503
  247ETHO    O147085   4.657   8.711  19.325
  247ETHO    C147086   4.539   8.635  19.294
  247ETHO   H1147087   4.569   8.528  19.304
  247ETHO   H1347088   4.455   8.661  19.361
  247ETHO    C247089   4.491   8.660  19.152
  247ETHO   H2147090   4.485   8.770  19.145
  247ETHO   H2347091   4.563   8.616  19.080
  248ETHO    O147092   4.358   8.615  19.129
  248ETHO    C147093   4.357   8.472  19.107
  248ETHO   H1147094   4.396   8.445  19.006
  248ETHO   H1347095   4.423   8.419  19.179
  248ETHO    C247096   4.211   8.431  19.142
  248ETHO   H2147097   4.210   8.440  19.253
  248ETHO   H2347098   4.202   8.324  19.112
  249ETHO    O147099   4.105   8.509  19.093
  249ETHO    C147100   3.974   8.473  19.132
  249ETHO   H1147101   3.953   8.366  19.111
  249ETHO   H1347102   3.957   8.487  19.240
  249ETHO    C247103   3.868   8.564  19.070
  249ETHO   H2147104   3.773   8.505  19.068
  249ETHO   H2347105   3.898   8.587  18.965
  250ETHO    O147106   3.857   8.683  19.138
  250ETHO    C147107   3.749   8.753  19.080
  250ETHO   H1147108   3.772   8.750  18.972
  250ETHO   H1347109   3.655   8.702  19.111
  250ETHO    C247110   3.745   8.903  19.108
  250ETHO   H2147111   3.763   8.924  19.216
  250ETHO   H2347112   3.645   8.939  19.073
  251ETHO    O147113   3.852   8.973  19.041
  251ETHO    C147114   3.871   9.101  19.092
  251ETHO   H1147115   3.909   9.088  19.196
  251ETHO   H1347116   3.779   9.162  19.084
  251ETHO    C247117   3.988   9.166  19.018
  251ETHO   H2147118   4.068   9.089  19.023
  251ETHO   H2347119   4.016   9.263  19.063
  252ETHO    O147120   3.962   9.183  18.877
  252ETHO    C147121   4.068   9.249  18.815
  252ETHO   H1147122   4.075   9.357  18.841
  252ETHO   H1347123   4.167   9.201  18.830
  252ETHO    C247124   4.033   9.244  18.667
  252ETHO   H2147125   4.102   9.306  18.607
  252ETHO   H2347126   3.931   9.284  18.652
  253ETHO    O147127   4.032   9.112  18.616
  253ETHO    C147128   4.024   9.116  18.478
  253ETHO   H1147129   4.113   9.175  18.446
  253ETHO   H1347130   3.929   9.166  18.449
  253ETHO    C247131   4.030   8.969  18.420
  253ETHO   H2147132   3.999   8.965  18.313
  253ETHO   H2347133   3.954   8.915  18.481
  254ETHO    O147134   4.161   8.908  18.435
  254ETHO    C147135   4.154   8.774  18.399
  254ETHO   H1147136   4.116   8.719  18.487
  254ETHO   H1347137   4.101   8.756  18.303
  254ETHO    C247138   4.287   8.698  18.377
  254ETHO   H2147139   4.274   8.591  18.352
  254ETHO   H2347140   4.343   8.707  18.472
  255ETHO    O147141   4.357   8.770  18.279
  255ETHO    C147142   4.477   8.710  18.260
  255ETHO   H1147143   4.464   8.605  18.226
  255ETHO   H1347144   4.537   8.708  18.354
  255ETHO    C247145   4.570   8.781  18.157
  255ETHO   H2147146   4.668   8.729  18.162
  255ETHO   H2347147   4.594   8.884  18.192
  256ETHO    O147148   4.529   8.788  18.017
  256ETHO    C147149   4.466   8.913  17.998
  256ETHO   H1147150   4.386   8.937  18.071
  256ETHO   H1347151   4.543   8.993  17.992
  256ETHO    C247152   4.395   8.920  17.860
  256ETHO   H2147153   4.354   9.023  17.852
  256ETHO   H2347154   4.314   8.845  17.851
  257ETHO    O147155   4.489   8.915  17.750
  257ETHO    C147156   4.427   8.921  17.623
  257ETHO   H1147157   4.395   9.027  17.610
  257ETHO   H1347158   4.341   8.852  17.620
  257ETHO    C247159   4.524   8.886  17.502
  257ETHO   H2147160   4.468   8.858  17.410
  257ETHO   H2347161   4.585   8.800  17.536
  258ETHO    O147162   4.591   9.001  17.461
  258ETHO    C147163   4.655   8.986  17.334
  258ETHO   H1147164   4.598   8.930  17.257
  258ETHO   H1347165   4.673   9.092  17.308
  258ETHO    C247166   4.790   8.914  17.354
  258ETHO   H2147167   4.820   8.910  17.461
  258ETHO   H2347168   4.870   8.965  17.296
  259ETHO    O147169   4.774   8.781  17.303
  259ETHO    C147170   4.798   8.758  17.167
  259ETHO   H1147171   4.716   8.704  17.115
  259ETHO   H1347172   4.812   8.850  17.106
  259ETHO    C247173   4.932   8.676  17.162
  259ETHO   H2147174   5.003   8.733  17.225
  259ETHO   H2347175   4.976   8.664  17.061
  260ETHO    O147176   4.907   8.550  17.229
  260ETHO    C147177   5.018   8.460  17.212
  260ETHO   H1147178   5.052   8.450  17.107
  260ETHO   H1347179   5.103   8.494  17.275
  260ETHO    C247180   4.980   8.319  17.256
  260ETHO   H2147181   5.050   8.245  17.213
  260ETHO   H2347182   4.878   8.307  17.214
  261ETHO    O147183   4.971   8.304  17.401
  261ETHO    C147184   4.916   8.183  17.446
  261ETHO   H1147185   4.836   8.155  17.374
  261ETHO   H1347186   4.995   8.106  17.440
  261ETHO    C247187   4.845   8.190  17.581
  261ETHO   H2147188   4.889   8.267  17.648
  261ETHO   H2347189   4.846   8.090  17.630
  262ETHO    O147190   4.712   8.237  17.573
  262ETHO    C147191   4.632   8.220  17.679
  262ETHO   H1147192   4.549   8.294  17.673
  262ETHO   H1347193   4.687   8.240  17.774
  262ETHO    C247194   4.579   8.076  17.696
  262ETHO   H2147195   4.517   8.080  17.787
  262ETHO   H2347196   4.654   7.998  17.723
  263ETHO    O147197   4.499   8.041  17.583
  263ETHO    C147198   4.374   7.992  17.627
  263ETHO   H1147199   4.325   8.078  17.678
  263ETHO   H1347200   4.387   7.909  17.700
  263ETHO    C247201   4.295   7.928  17.513
  263ETHO   H2147202   4.208   7.879  17.563
  263ETHO   H2347203   4.365   7.848  17.479
  264ETHO    O147204   4.260   8.020  17.407
  264ETHO    C147205   4.213   7.950  17.295
  264ETHO   H1147206   4.166   8.023  17.226
  264ETHO   H1347207   4.132   7.880  17.323
  264ETHO    C247208   4.321   7.883  17.212
  264ETHO   H2147209   4.418   7.924  17.247
  264ETHO   H2347210   4.304   7.896  17.103
  265ETHO    O147211   4.324   7.744  17.234
  265ETHO    C147212   4.399   7.677  17.135
  265ETHO   H1147213   4.385   7.569  17.158
  265ETHO   H1347214   4.343   7.697  17.041
  265ETHO    C247215   4.543   7.731  17.124
  265ETHO   H2147216   4.548   7.840  17.105
  265ETHO   H2347217   4.592   7.674  17.042
  265ETHO    OZ47218   4.622   7.689  17.237
  265ETHO   HZ147219   4.609   7.755  17.305
    1ETHO    O147220  11.626   5.672   4.294
    1ETHO   HO147221  11.595   5.746   4.347
    1ETHO    C147222  11.757   5.698   4.239
    1ETHO   H1147223  11.754   5.734   4.134
    1ETHO   H1347224  11.815   5.603   4.238
    1ETHO    C247225  11.822   5.807   4.326
    1ETHO   H2147226  11.766   5.903   4.323
    1ETHO   H2347227  11.918   5.833   4.278
    2ETHO    O147228  11.845   5.783   4.465
    2ETHO    C147229  11.948   5.685   4.476
    2ETHO   H1147230  11.944   5.598   4.408
    2ETHO   H1347231  12.040   5.741   4.450
    2ETHO    C247232  11.947   5.630   4.618
    2ETHO   H2147233  11.935   5.711   4.692
    2ETHO   H2347234  12.043   5.578   4.641
    3ETHO    O147235  11.847   5.538   4.643
    3ETHO    C147236  11.864   5.476   4.775
    3ETHO   H1147237  11.848   5.557   4.849
    3ETHO   H1347238  11.960   5.420   4.778
    3ETHO    C247239  11.753   5.366   4.792
    3ETHO   H2147240  11.754   5.331   4.898
    3ETHO   H2347241  11.775   5.285   4.719
    4ETHO    O147242  11.612   5.403   4.775
    4ETHO    C147243  11.524   5.303   4.820
    4ETHO   H1147244  11.544   5.212   4.759
    4ETHO   H1347245  11.545   5.286   4.928
    4ETHO    C247246  11.368   5.338   4.819
    4ETHO   H2147247  11.316   5.241   4.803
    4ETHO   H2347248  11.339   5.400   4.732
    5ETHO    O147249  11.322   5.376   4.948
    5ETHO    C147250  11.183   5.409   4.951
    5ETHO   H1147251  11.129   5.337   4.887
    5ETHO   H1347252  11.141   5.402   5.053
    5ETHO    C247253  11.160   5.559   4.904
    5ETHO   H2147254  11.051   5.578   4.893
    5ETHO   H2347255  11.216   5.569   4.809
    6ETHO    O147256  11.220   5.653   4.995
    6ETHO    C147257  11.214   5.791   4.955
    6ETHO   H1147258  11.289   5.815   4.877
    6ETHO   H1347259  11.110   5.795   4.916
    6ETHO    C247260  11.220   5.899   5.061
    6ETHO   H2147261  11.325   5.904   5.097
    6ETHO   H2347262  11.146   5.867   5.138
    7ETHO    O147263  11.178   6.027   5.006
    7ETHO    C147264  11.203   6.127   5.102
    7ETHO   H1147265  11.174   6.105   5.207
    7ETHO   H1347266  11.313   6.142   5.101
    7ETHO    C247267  11.131   6.264   5.070
    7ETHO   H2147268  11.106   6.320   5.162
    7ETHO   H2347269  11.037   6.236   5.019
    8ETHO    O147270  11.194   6.344   4.977
    8ETHO    C147271  11.135   6.472   4.984
    8ETHO   H1147272  11.192   6.528   5.060
    8ETHO   H1347273  11.026   6.468   5.006
    8ETHO    C247274  11.154   6.544   4.856
    8ETHO   H2147275  11.247   6.527   4.798
    8ETHO   H2347276  11.161   6.655   4.863
    9ETHO    O147277  11.045   6.500   4.778
    9ETHO    C147278  11.052   6.568   4.654
    9ETHO   H1147279  11.061   6.677   4.673
    9ETHO   H1347280  11.136   6.536   4.589
    9ETHO    C247281  10.918   6.552   4.579
    9ETHO   H2147282  10.911   6.636   4.505
    9ETHO   H2347283  10.836   6.559   4.654
   10ETHO    O147284  10.902   6.423   4.511
   10ETHO    C147285  10.784   6.408   4.436
   10ETHO   H1147286  10.780   6.498   4.371
   10ETHO   H1347287  10.698   6.414   4.506
   10ETHO    C247288  10.759   6.271   4.369
   10ETHO   H2147289  10.655   6.253   4.335
   10ETHO   H2347290  10.765   6.194   4.448
   11ETHO    O147291  10.852   6.251   4.263
   11ETHO    C147292  10.824   6.138   4.183
   11ETHO   H1147293  10.820   6.047   4.248
   11ETHO   H1347294  10.723   6.149   4.139
   11ETHO    C247295  10.916   6.136   4.064
   11ETHO   H2147296  10.871   6.062   3.994
   11ETHO   H2347297  10.913   6.234   4.012
   12ETHO    O147298  11.047   6.080   4.086
   12ETHO    C147299  11.128   6.083   3.973
   12ETHO   H1147300  11.144   6.186   3.936
   12ETHO   H1347301  11.088   6.033   3.882
   12ETHO    C247302  11.269   6.033   4.016
   12ETHO   H2147303  11.333   6.019   3.925
   12ETHO   H2347304  11.254   5.939   4.073
   13ETHO    O147305  11.350   6.125   4.091
   13ETHO    C147306  11.484   6.069   4.115
   13ETHO   H1147307  11.464   5.972   4.167
   13ETHO   H1347308  11.548   6.067   4.025
   13ETHO    C247309  11.566   6.168   4.214
   13ETHO   H2147310  11.644   6.112   4.269
   13ETHO   H2347311  11.495   6.203   4.292
   14ETHO    O147312  11.614   6.288   4.146
   14ETHO    C147313  11.758   6.290   4.142
   14ETHO   H1147314  11.786   6.316   4.038
   14ETHO   H1347315  11.800   6.187   4.146
   14ETHO    C247316  11.835   6.375   4.241
   14ETHO   H2147317  11.938   6.333   4.246
   14ETHO   H2347318  11.810   6.371   4.349
   15ETHO    O147319  11.830   6.507   4.202
   15ETHO    C147320  11.716   6.575   4.254
   15ETHO   H1147321  11.627   6.544   4.195
   15ETHO   H1347322  11.692   6.561   4.362
   15ETHO    C247323  11.709   6.721   4.220
   15ETHO   H2147324  11.757   6.739   4.121
   15ETHO   H2347325  11.603   6.752   4.214
   16ETHO    O147326  11.769   6.818   4.310
   16ETHO    C147327  11.751   6.950   4.249
   16ETHO   H1147328  11.793   6.958   4.147
   16ETHO   H1347329  11.642   6.970   4.237
   16ETHO    C247330  11.791   7.055   4.358
   16ETHO   H2147331  11.792   7.159   4.319
   16ETHO   H2347332  11.894   7.032   4.393
   17ETHO    O147333  11.696   7.051   4.461
   17ETHO    C147334  11.727   7.138   4.563
   17ETHO   H1147335  11.836   7.142   4.582
   17ETHO   H1347336  11.692   7.238   4.531
   17ETHO    C247337  11.663   7.105   4.698
   17ETHO   H2147338  11.553   7.086   4.691
   17ETHO   H2347339  11.681   7.192   4.764
   18ETHO    O147340  11.717   6.990   4.769
   18ETHO    C147341  11.706   6.867   4.707
   18ETHO   H1147342  11.630   6.879   4.627
   18ETHO   H1347343  11.799   6.845   4.652
   18ETHO    C247344  11.675   6.764   4.812
   18ETHO   H2147345  11.769   6.739   4.865
   18ETHO   H2347346  11.649   6.670   4.757
   19ETHO    O147347  11.576   6.807   4.905
   19ETHO    C147348  11.492   6.701   4.947
   19ETHO   H1147349  11.560   6.618   4.976
   19ETHO   H1347350  11.429   6.660   4.865
   19ETHO    C247351  11.419   6.745   5.075
   19ETHO   H2147352  11.495   6.780   5.148
   19ETHO   H2347353  11.362   6.662   5.123
   20ETHO    O147354  11.318   6.845   5.045
   20ETHO    C147355  11.248   6.884   5.164
   20ETHO   H1147356  11.174   6.808   5.198
   20ETHO   H1347357  11.316   6.896   5.251
   20ETHO    C247358  11.159   7.010   5.143
   20ETHO   H2147359  11.076   7.013   5.217
   20ETHO   H2347360  11.126   6.989   5.039
   21ETHO    O147361  11.227   7.137   5.133
   21ETHO    C147362  11.356   7.127   5.064
   21ETHO   H1147363  11.351   7.084   4.962
   21ETHO   H1347364  11.421   7.061   5.127
   21ETHO    C247365  11.425   7.262   5.048
   21ETHO   H2147366  11.525   7.244   5.003
   21ETHO   H2347367  11.450   7.317   5.142
   22ETHO    O147368  11.359   7.352   4.962
   22ETHO    C147369  11.250   7.421   5.034
   22ETHO   H1147370  11.171   7.344   5.045
   22ETHO   H1347371  11.282   7.460   5.133
   22ETHO    C247372  11.205   7.541   4.952
   22ETHO   H2147373  11.168   7.616   5.025
   22ETHO   H2347374  11.295   7.591   4.909
   23ETHO    O147375  11.112   7.499   4.852
   23ETHO    C147376  11.059   7.613   4.796
   23ETHO   H1147377  11.135   7.694   4.784
   23ETHO   H1347378  10.983   7.653   4.866
   23ETHO    C247379  10.989   7.573   4.672
   23ETHO   H2147380  10.904   7.642   4.654
   23ETHO   H2347381  10.955   7.468   4.685
   24ETHO    O147382  11.077   7.592   4.563
   24ETHO    C147383  11.009   7.577   4.438
   24ETHO   H1147384  10.977   7.471   4.438
   24ETHO   H1347385  10.921   7.644   4.446
   24ETHO    C247386  11.084   7.617   4.306
   24ETHO   H2147387  11.144   7.709   4.320
   24ETHO   H2347388  11.021   7.621   4.214
   25ETHO    O147389  11.180   7.516   4.266
   25ETHO    C147390  11.246   7.554   4.146
   25ETHO   H1147391  11.295   7.650   4.173
   25ETHO   H1347392  11.180   7.563   4.057
   25ETHO    C247393  11.360   7.451   4.130
   25ETHO   H2147394  11.417   7.477   4.038
   25ETHO   H2347395  11.327   7.345   4.139
   26ETHO    O147396  11.455   7.470   4.231
   26ETHO    C147397  11.521   7.356   4.274
   26ETHO   H1147398  11.569   7.302   4.190
   26ETHO   H1347399  11.595   7.398   4.345
   26ETHO    C247400  11.436   7.248   4.353
   26ETHO   H2147401  11.489   7.151   4.354
   26ETHO   H2347402  11.336   7.227   4.311
   27ETHO    O147403  11.416   7.269   4.491
   27ETHO    C147404  11.330   7.381   4.519
   27ETHO   H1147405  11.229   7.338   4.534
   27ETHO   H1347406  11.326   7.450   4.432
   27ETHO    C247407  11.371   7.462   4.644
   27ETHO   H2147408  11.372   7.388   4.727
   27ETHO   H2347409  11.286   7.526   4.676
   28ETHO    O147410  11.501   7.521   4.625
   28ETHO    C147411  11.611   7.467   4.683
   28ETHO   H1147412  11.601   7.356   4.676
   28ETHO   H1347413  11.701   7.493   4.623
   28ETHO    C247414  11.624   7.515   4.823
   28ETHO   H2147415  11.717   7.477   4.870
   28ETHO   H2347416  11.534   7.483   4.880
   29ETHO    O147417  11.624   7.659   4.819
   29ETHO    C147418  11.610   7.703   4.950
   29ETHO   H1147419  11.677   7.646   5.018
   29ETHO   H1347420  11.506   7.698   4.988
   29ETHO    C247421  11.644   7.847   4.981
   29ETHO   H2147422  11.746   7.868   4.941
   29ETHO   H2347423  11.646   7.847   5.092
   30ETHO    O147424  11.552   7.942   4.937
   30ETHO    C147425  11.582   8.067   4.995
   30ETHO   H1147426  11.594   8.056   5.105
   30ETHO   H1347427  11.687   8.090   4.965
   30ETHO    C247428  11.485   8.169   4.936
   30ETHO   H2147429  11.489   8.141   4.828
   30ETHO   H2347430  11.525   8.272   4.948
   31ETHO    O147431  11.351   8.159   4.992
   31ETHO    C147432  11.251   8.192   4.906
   31ETHO   H1147433  11.284   8.283   4.851
   31ETHO   H1347434  11.231   8.124   4.820
   31ETHO    C247435  11.107   8.212   4.962
   31ETHO   H2147436  11.031   8.244   4.887
   31ETHO   H2347437  11.113   8.298   5.032
   32ETHO    O147438  11.059   8.093   5.034
   32ETHO    C147439  10.926   8.109   5.085
   32ETHO   H1147440  10.934   8.064   5.186
   32ETHO   H1347441  10.903   8.218   5.087
   32ETHO    C247442  10.816   8.030   5.006
   32ETHO   H2147443  10.728   8.054   5.069
   32ETHO   H2347444  10.849   7.924   5.008
   33ETHO    O147445  10.792   8.101   4.886
   33ETHO    C147446  10.761   8.020   4.776
   33ETHO   H1147447  10.683   7.946   4.806
   33ETHO   H1347448  10.703   8.072   4.697
   33ETHO    C247449  10.890   7.963   4.713
   33ETHO   H2147450  10.857   7.873   4.657
   33ETHO   H2347451  10.961   7.943   4.795
   34ETHO    O147452  10.961   8.045   4.616
   34ETHO    C147453  11.085   7.985   4.568
   34ETHO   H1147454  11.064   7.881   4.536
   34ETHO   H1347455  11.146   7.974   4.660
   34ETHO    C247456  11.165   8.069   4.460
   34ETHO   H2147457  11.108   8.074   4.365
   34ETHO   H2347458  11.250   8.002   4.432
   35ETHO    O147459  11.225   8.186   4.513
   35ETHO    C147460  11.146   8.303   4.483
   35ETHO   H1147461  11.133   8.318   4.374
   35ETHO   H1347462  11.043   8.295   4.525
   35ETHO    C247463  11.219   8.423   4.537
   35ETHO   H2147464  11.295   8.396   4.613
   35ETHO   H2347465  11.142   8.481   4.591
   36ETHO    O147466  11.280   8.490   4.429
   36ETHO    C147467  11.419   8.458   4.429
   36ETHO   H1147468  11.442   8.355   4.393
   36ETHO   H1347469  11.461   8.472   4.531
   36ETHO    C247470  11.503   8.550   4.341
   36ETHO   H2147471  11.611   8.552   4.370
   36ETHO   H2347472  11.466   8.654   4.347
   37ETHO    O147473  11.488   8.518   4.204
   37ETHO    C147474  11.540   8.618   4.115
   37ETHO   H1147475  11.462   8.697   4.117
   37ETHO   H1347476  11.638   8.656   4.151
   37ETHO    C247477  11.561   8.584   3.966
   37ETHO   H2147478  11.616   8.488   3.966
   37ETHO   H2347479  11.602   8.676   3.920
   38ETHO    O147480  11.431   8.564   3.900
   38ETHO    C147481  11.446   8.565   3.756
   38ETHO   H1147482  11.538   8.505   3.737
   38ETHO   H1347483  11.467   8.667   3.718
   38ETHO    C247484  11.331   8.510   3.673
   38ETHO   H2147485  11.361   8.534   3.569
   38ETHO   H2347486  11.239   8.571   3.677
   39ETHO    O147487  11.308   8.373   3.690
   39ETHO    C147488  11.250   8.342   3.818
   39ETHO   H1147489  11.330   8.350   3.895
   39ETHO   H1347490  11.169   8.413   3.844
   39ETHO    C247491  11.187   8.205   3.821
   39ETHO   H2147492  11.101   8.213   3.751
   39ETHO   H2347493  11.143   8.189   3.922
   40ETHO    O147494  11.278   8.097   3.795
   40ETHO    C147495  11.205   7.982   3.754
   40ETHO   H1147496  11.188   7.979   3.644
   40ETHO   H1347497  11.107   7.983   3.807
   40ETHO    C247498  11.289   7.858   3.798
   40ETHO   H2147499  11.207   7.784   3.808
   40ETHO   H2347500  11.314   7.885   3.903
   41ETHO    O147501  11.400   7.816   3.720
   41ETHO    C147502  11.450   7.701   3.781
   41ETHO   H1147503  11.521   7.736   3.859
   41ETHO   H1347504  11.368   7.639   3.824
   41ETHO    C247505  11.537   7.622   3.687
   41ETHO   H2147506  11.606   7.562   3.750
   41ETHO   H2347507  11.603   7.695   3.636
   42ETHO    O147508  11.478   7.522   3.599
   42ETHO    C147509  11.577   7.466   3.511
   42ETHO   H1147510  11.641   7.545   3.466
   42ETHO   H1347511  11.639   7.402   3.578
   42ETHO    C247512  11.515   7.391   3.399
   42ETHO   H2147513  11.596   7.347   3.338
   42ETHO   H2347514  11.447   7.458   3.341
   43ETHO    O147515  11.428   7.287   3.451
   43ETHO    C147516  11.356   7.207   3.357
   43ETHO   H1147517  11.256   7.180   3.399
   43ETHO   H1347518  11.332   7.260   3.262
   43ETHO    C247519  11.434   7.079   3.319
   43ETHO   H2147520  11.541   7.097   3.298
   43ETHO   H2347521  11.385   7.033   3.230
   44ETHO    O147522  11.426   6.990   3.430
   44ETHO    C147523  11.503   6.866   3.403
   44ETHO   H1147524  11.447   6.821   3.319
   44ETHO   H1347525  11.599   6.898   3.358
   44ETHO    C247526  11.517   6.769   3.525
   44ETHO   H2147527  11.562   6.677   3.482
   44ETHO   H2347528  11.413   6.745   3.555
   45ETHO    O147529  11.582   6.812   3.640
   45ETHO    C147530  11.724   6.823   3.616
   45ETHO   H1147531  11.732   6.910   3.548
   45ETHO   H1347532  11.764   6.741   3.553
   45ETHO    C247533  11.818   6.851   3.727
   45ETHO   H2147534  11.920   6.853   3.683
   45ETHO   H2347535  11.815   6.774   3.807
   46ETHO    O147536  11.785   6.971   3.790
   46ETHO    C147537  11.887   7.026   3.876
   46ETHO   H1147538  11.917   6.953   3.954
   46ETHO   H1347539  11.967   7.051   3.804
   46ETHO    C247540  11.843   7.163   3.923
   46ETHO   H2147541  11.758   7.155   3.995
   46ETHO   H2347542  11.807   7.229   3.842
   47ETHO    O147543  11.947   7.212   3.999
   47ETHO    C147544  11.918   7.336   4.061
   47ETHO   H1147545  11.820   7.331   4.113
   47ETHO   H1347546  11.897   7.401   3.974
   47ETHO    C247547  12.027   7.399   4.160
   47ETHO   H2147548  12.105   7.461   4.110
   47ETHO   H2347549  12.078   7.315   4.213
   48ETHO    O147550  11.963   7.464   4.271
   48ETHO    C147551  11.923   7.598   4.228
   48ETHO   H1147552  12.011   7.664   4.211
   48ETHO   H1347553  11.852   7.586   4.144
   48ETHO    C247554  11.828   7.670   4.332
   48ETHO   H2147555  11.795   7.769   4.292
   48ETHO   H2347556  11.740   7.605   4.352
   49ETHO    O147557  11.881   7.697   4.460
   49ETHO    C147558  11.794   7.760   4.551
   49ETHO   H1147559  11.813   7.720   4.653
   49ETHO   H1347560  11.693   7.738   4.510
   49ETHO    C247561  11.818   7.912   4.547
   49ETHO   H2147562  11.728   7.951   4.601
   49ETHO   H2347563  11.827   7.947   4.442
   50ETHO    O147564  11.934   7.950   4.624
   50ETHO    C147565  11.951   8.091   4.620
   50ETHO   H1147566  11.962   8.126   4.515
   50ETHO   H1347567  11.856   8.129   4.664
   50ETHO    C247568  12.064   8.143   4.705
   50ETHO   H2147569  12.154   8.078   4.694
   50ETHO   H2347570  12.036   8.152   4.812
   51ETHO    O147571  12.098   8.268   4.654
   51ETHO    C147572  12.194   8.341   4.726
   51ETHO   H1147573  12.289   8.294   4.691
   51ETHO   H1347574  12.186   8.320   4.834
   51ETHO    C247575  12.193   8.491   4.698
   51ETHO   H2147576  12.217   8.503   4.590
   51ETHO   H2347577  12.280   8.526   4.758
   52ETHO    O147578  12.074   8.553   4.741
   52ETHO    C147579  12.048   8.662   4.657
   52ETHO   H1147580  12.139   8.725   4.663
   52ETHO   H1347581  12.032   8.616   4.557
   52ETHO    C247582  11.926   8.743   4.699
   52ETHO   H2147583  11.842   8.670   4.708
   52ETHO   H2347584  11.914   8.819   4.619
   53ETHO    O147585  11.945   8.814   4.822
   53ETHO    C147586  11.865   8.935   4.829
   53ETHO   H1147587  11.890   9.000   4.742
   53ETHO   H1347588  11.755   8.919   4.827
   53ETHO    C247589  11.903   9.003   4.961
   53ETHO   H2147590  11.852   9.102   4.955
   53ETHO   H2347591  12.014   9.009   4.957
   54ETHO    O147592  11.861   8.931   5.076
   54ETHO    C147593  11.910   8.999   5.191
   54ETHO   H1147594  12.017   9.025   5.173
   54ETHO   H1347595  11.853   9.091   5.219
   54ETHO    C247596  11.897   8.912   5.317
   54ETHO   H2147597  11.789   8.898   5.339
   54ETHO   H2347598  11.938   8.959   5.409
   55ETHO    O147599  11.944   8.781   5.307
   55ETHO    C147600  11.958   8.708   5.428
   55ETHO   H1147601  12.003   8.771   5.508
   55ETHO   H1347602  11.858   8.673   5.462
   55ETHO    C247603  12.040   8.579   5.414
   55ETHO   H2147604  12.057   8.514   5.503
   55ETHO   H2347605  11.979   8.516   5.346
   56ETHO    O147606  12.165   8.593   5.345
   56ETHO    C147607  12.237   8.471   5.334
   56ETHO   H1147608  12.184   8.386   5.286
   56ETHO   H1347609  12.266   8.444   5.438
   56ETHO    C247610  12.362   8.489   5.250
   56ETHO   H2147611  12.422   8.572   5.292
   56ETHO   H2347612  12.335   8.513   5.145
   57ETHO    O147613  12.438   8.369   5.240
   57ETHO    C147614  12.531   8.337   5.345
   57ETHO   H1147615  12.599   8.426   5.350
   57ETHO   H1347616  12.476   8.331   5.442
   57ETHO    C247617  12.589   8.199   5.307
   57ETHO   H2147618  12.501   8.132   5.310
   57ETHO   H2347619  12.661   8.172   5.387
   58ETHO    O147620  12.656   8.212   5.183
   58ETHO    C147621  12.708   8.088   5.149
   58ETHO   H1147622  12.632   8.011   5.173
   58ETHO   H1347623  12.805   8.072   5.201
   58ETHO    C247624  12.727   8.087   4.990
   58ETHO   H2147625  12.807   8.012   4.969
   58ETHO   H2347626  12.773   8.185   4.965
   59ETHO    O147627  12.603   8.080   4.920
   59ETHO    C147628  12.565   7.949   4.905
   59ETHO   H1147629  12.654   7.888   4.878
   59ETHO   H1347630  12.516   7.907   4.996
   59ETHO    C247631  12.460   7.937   4.797
   59ETHO   H2147632  12.494   7.970   4.696
   59ETHO   H2347633  12.383   8.011   4.827
   60ETHO    O147634  12.413   7.810   4.799
   60ETHO    C147635  12.310   7.802   4.697
   60ETHO   H1147636  12.235   7.884   4.704
   60ETHO   H1347637  12.257   7.706   4.720
   60ETHO    C247638  12.367   7.792   4.550
   60ETHO   H2147639  12.374   7.684   4.525
   60ETHO   H2347640  12.473   7.826   4.552
   61ETHO    O147641  12.307   7.875   4.444
   61ETHO    C147642  12.173   7.845   4.426
   61ETHO   H1147643  12.163   7.741   4.388
   61ETHO   H1347644  12.111   7.851   4.519
   61ETHO    C247645  12.105   7.935   4.323
   61ETHO   H2147646  12.112   8.041   4.354
   61ETHO   H2347647  12.000   7.901   4.334
   62ETHO    O147648  12.159   7.907   4.194
   62ETHO    C147649  12.100   7.982   4.089
   62ETHO   H1147650  12.168   7.991   4.002
   62ETHO   H1347651  12.099   8.088   4.123
   62ETHO    C247652  11.962   7.921   4.050
   62ETHO   H2147653  11.920   7.897   4.150
   62ETHO   H2347654  11.976   7.835   3.981
   63ETHO    O147655  11.881   8.009   3.979
   63ETHO    C147656  11.750   7.954   3.966
   63ETHO   H1147657  11.749   7.869   3.896
   63ETHO   H1347658  11.706   7.912   4.059
   63ETHO    C247659  11.660   8.069   3.910
   63ETHO   H2147660  11.672   8.159   3.974
   63ETHO   H2347661  11.553   8.042   3.904
   64ETHO    O147662  11.704   8.087   3.773
   64ETHO    C147663  11.636   8.193   3.710
   64ETHO   H1147664  11.662   8.295   3.745
   64ETHO   H1347665  11.527   8.185   3.734
   64ETHO    C247666  11.660   8.202   3.559
   64ETHO   H2147667  11.609   8.287   3.509
   64ETHO   H2347668  11.622   8.114   3.502
   65ETHO    O147669  11.795   8.216   3.536
   65ETHO    C147670  11.831   8.205   3.396
   65ETHO   H1147671  11.770   8.138   3.332
   65ETHO   H1347672  11.804   8.298   3.342
   65ETHO    C247673  11.973   8.157   3.385
   65ETHO   H2147674  12.006   8.161   3.279
   65ETHO   H2347675  11.978   8.051   3.416
   66ETHO    O147676  12.067   8.231   3.465
   66ETHO    C147677  12.196   8.174   3.482
   66ETHO   H1147678  12.193   8.082   3.420
   66ETHO   H1347679  12.220   8.145   3.587
   66ETHO    C247680  12.308   8.263   3.424
   66ETHO   H2147681  12.261   8.308   3.334
   66ETHO   H2347682  12.388   8.194   3.390
   67ETHO    O147683  12.362   8.366   3.510
   67ETHO    C147684  12.367   8.486   3.432
   67ETHO   H1147685  12.414   8.470   3.333
   67ETHO   H1347686  12.261   8.513   3.418
   67ETHO    C247687  12.411   8.616   3.501
   67ETHO   H2147688  12.414   8.690   3.419
   67ETHO   H2347689  12.511   8.614   3.549
   68ETHO    O147690  12.310   8.663   3.598
   68ETHO    C147691  12.313   8.578   3.715
   68ETHO   H1147692  12.240   8.498   3.690
   68ETHO   H1347693  12.406   8.522   3.737
   68ETHO    C247694  12.277   8.657   3.839
   68ETHO   H2147695  12.180   8.709   3.823
   68ETHO   H2347696  12.353   8.735   3.861
   69ETHO    O147697  12.270   8.557   3.942
   69ETHO    C147698  12.275   8.625   4.062
   69ETHO   H1147699  12.380   8.650   4.088
   69ETHO   H1347700  12.203   8.709   4.064
   69ETHO    C247701  12.231   8.536   4.176
   69ETHO   H2147702  12.125   8.504   4.165
   69ETHO   H2347703  12.234   8.599   4.268
   70ETHO    O147704  12.305   8.417   4.204
   70ETHO    C147705  12.255   8.342   4.311
   70ETHO   H1147706  12.223   8.422   4.382
   70ETHO   H1347707  12.162   8.298   4.270
   70ETHO    C247708  12.347   8.230   4.360
   70ETHO   H2147709  12.347   8.142   4.292
   70ETHO   H2347710  12.299   8.183   4.448
   71ETHO    O147711  12.478   8.274   4.399
   71ETHO    C147712  12.542   8.165   4.464
   71ETHO   H1147713  12.537   8.081   4.391
   71ETHO   H1347714  12.494   8.142   4.561
   71ETHO    C247715  12.689   8.196   4.507
   71ETHO   H2147716  12.739   8.221   4.411
   71ETHO   H2347717  12.731   8.101   4.545
   72ETHO    O147718  12.704   8.306   4.588
   72ETHO    C147719  12.823   8.290   4.668
   72ETHO   H1147720  12.817   8.208   4.742
   72ETHO   H1347721  12.916   8.280   4.607
   72ETHO    C247722  12.851   8.422   4.747
   72ETHO   H2147723  12.937   8.399   4.814
   72ETHO   H2347724  12.759   8.446   4.804
   73ETHO    O147725  12.887   8.528   4.659
   73ETHO    C147726  12.876   8.648   4.732
   73ETHO   H1147727  12.905   8.624   4.836
   73ETHO   H1347728  12.770   8.673   4.711
   73ETHO    C247729  12.956   8.769   4.673
   73ETHO   H2147730  13.047   8.729   4.624
   73ETHO   H2347731  12.968   8.842   4.756
   74ETHO    O147732  12.879   8.839   4.574
   74ETHO    C147733  12.913   8.977   4.566
   74ETHO   H1147734  12.878   9.029   4.658
   74ETHO   H1347735  13.023   8.990   4.563
   74ETHO    C247736  12.846   9.061   4.449
   74ETHO   H2147737  12.837   9.166   4.484
   74ETHO   H2347738  12.751   9.031   4.400
   75ETHO    O147739  12.932   9.076   4.335
   75ETHO    C147740  12.965   8.943   4.276
   75ETHO   H1147741  12.881   8.871   4.285
   75ETHO   H1347742  13.043   8.898   4.340
   75ETHO    C247743  13.012   8.956   4.129
   75ETHO   H2147744  13.038   8.851   4.105
   75ETHO   H2347745  13.084   9.040   4.119
   76ETHO    O147746  12.901   8.985   4.049
   76ETHO    C147747  12.950   9.007   3.911
   76ETHO   H1147748  12.977   9.111   3.885
   76ETHO   H1347749  13.042   8.949   3.888
   76ETHO    C247750  12.852   8.960   3.809
   76ETHO   H2147751  12.883   8.981   3.704
   76ETHO   H2347752  12.760   9.023   3.813
   77ETHO    O147753  12.834   8.822   3.823
   77ETHO    C147754  12.703   8.781   3.800
   77ETHO   H1147755  12.664   8.808   3.699
   77ETHO   H1347756  12.649   8.834   3.881
   77ETHO    C247757  12.676   8.629   3.831
   77ETHO   H2147758  12.569   8.603   3.842
   77ETHO   H2347759  12.713   8.596   3.930
   78ETHO    O147760  12.732   8.551   3.719
   78ETHO    C147761  12.727   8.414   3.743
   78ETHO   H1147762  12.740   8.389   3.851
   78ETHO   H1347763  12.625   8.371   3.730
   78ETHO    C247764  12.807   8.341   3.635
   78ETHO   H2147765  12.797   8.397   3.540
   78ETHO   H2347766  12.770   8.238   3.617
   79ETHO    O147767  12.937   8.319   3.683
   79ETHO    C147768  13.014   8.245   3.593
   79ETHO   H1147769  12.959   8.161   3.545
   79ETHO   H1347770  13.068   8.307   3.519
   79ETHO    C247771  13.123   8.185   3.679
   79ETHO   H2147772  13.185   8.135   3.601
   79ETHO   H2347773  13.078   8.105   3.741
   80ETHO    O147774  13.195   8.279   3.758
   80ETHO    C147775  13.283   8.209   3.847
   80ETHO   H1147776  13.218   8.136   3.901
   80ETHO   H1347777  13.356   8.152   3.785
   80ETHO    C247778  13.352   8.310   3.944
   80ETHO   H2147779  13.394   8.392   3.882
   80ETHO   H2347780  13.443   8.261   3.987
   81ETHO    O147781  13.265   8.347   4.049
   81ETHO    C147782  13.285   8.484   4.093
   81ETHO   H1147783  13.382   8.488   4.148
   81ETHO   H1347784  13.278   8.555   4.008
   81ETHO    C247785  13.172   8.522   4.190
   81ETHO   H2147786  13.166   8.630   4.215
   81ETHO   H2347787  13.071   8.499   4.150
   82ETHO    O147788  13.185   8.446   4.305
   82ETHO    C147789  13.237   8.519   4.414
   82ETHO   H1147790  13.184   8.616   4.419
   82ETHO   H1347791  13.345   8.538   4.396
   82ETHO    C247792  13.216   8.457   4.554
   82ETHO   H2147793  13.114   8.414   4.557
   82ETHO   H2347794  13.214   8.543   4.623
   83ETHO    O147795  13.310   8.357   4.586
   83ETHO    C147796  13.421   8.413   4.653
   83ETHO   H1147797  13.502   8.421   4.577
   83ETHO   H1347798  13.398   8.516   4.685
   83ETHO    C247799  13.460   8.320   4.765
   83ETHO   H2147800  13.564   8.351   4.789
   83ETHO   H2347801  13.478   8.221   4.718
   84ETHO    O147802  13.390   8.322   4.884
   84ETHO    C147803  13.269   8.237   4.878
   84ETHO   H1147804  13.300   8.132   4.858
   84ETHO   H1347805  13.205   8.278   4.797
   84ETHO    C247806  13.195   8.226   5.011
   84ETHO   H2147807  13.250   8.191   5.100
   84ETHO   H2347808  13.109   8.156   4.998
   85ETHO    O147809  13.143   8.360   5.039
   85ETHO    C147810  13.130   8.387   5.175
   85ETHO   H1147811  13.031   8.347   5.206
   85ETHO   H1347812  13.212   8.338   5.232
   85ETHO    C247813  13.139   8.542   5.187
   85ETHO   H2147814  13.061   8.589   5.123
   85ETHO   H2347815  13.239   8.567   5.144
   86ETHO    O147816  13.119   8.575   5.325
   86ETHO    C147817  13.147   8.708   5.352
   86ETHO   H1147818  13.077   8.779   5.303
   86ETHO   H1347819  13.243   8.744   5.309
   86ETHO    C247820  13.156   8.725   5.505
   86ETHO   H2147821  13.184   8.825   5.545
   86ETHO   H2347822  13.229   8.660   5.557
   87ETHO    O147823  13.029   8.685   5.538
   87ETHO    C147824  13.000   8.701   5.678
   87ETHO   H1147825  13.071   8.648   5.745
   87ETHO   H1347826  13.000   8.811   5.695
   87ETHO    C247827  12.862   8.649   5.714
   87ETHO   H2147828  12.859   8.540   5.697
   87ETHO   H2347829  12.785   8.697   5.650
   88ETHO    O147830  12.846   8.678   5.855
   88ETHO    C147831  12.726   8.623   5.900
   88ETHO   H1147832  12.723   8.512   5.901
   88ETHO   H1347833  12.644   8.668   5.840
   88ETHO    C247834  12.679   8.663   6.041
   88ETHO   H2147835  12.752   8.618   6.112
   88ETHO   H2347836  12.582   8.612   6.060
   89ETHO    O147837  12.678   8.803   6.075
   89ETHO    C147838  12.586   8.825   6.184
   89ETHO   H1147839  12.490   8.800   6.133
   89ETHO   H1347840  12.603   8.757   6.270
   89ETHO    C247841  12.586   8.971   6.227
   89ETHO   H2147842  12.494   8.993   6.285
   89ETHO   H2347843  12.589   9.040   6.139
   90ETHO    O147844  12.700   9.001   6.306
   90ETHO    C147845  12.715   9.136   6.341
   90ETHO   H1147846  12.751   9.193   6.252
   90ETHO   H1347847  12.619   9.181   6.373
   90ETHO    C247848  12.821   9.163   6.453
   90ETHO   H2147849  12.900   9.239   6.434
   90ETHO   H2347850  12.879   9.069   6.463
   91ETHO    O147851  12.754   9.204   6.570
   91ETHO    C147852  12.832   9.297   6.647
   91ETHO   H1147853  12.939   9.265   6.648
   91ETHO   H1347854  12.828   9.396   6.595
   91ETHO    C247855  12.791   9.311   6.798
   91ETHO   H2147856  12.682   9.329   6.805
   91ETHO   H2347857  12.834   9.405   6.838
   92ETHO    O147858  12.819   9.196   6.878
   92ETHO    C147859  12.947   9.206   6.944
   92ETHO   H1147860  13.020   9.199   6.861
   92ETHO   H1347861  12.962   9.304   6.996
   92ETHO    C247862  12.969   9.102   7.054
   92ETHO   H2147863  13.079   9.099   7.068
   92ETHO   H2347864  12.919   9.008   7.021
   93ETHO    O147865  12.911   9.142   7.180
   93ETHO    C147866  12.977   9.257   7.237
   93ETHO   H1147867  12.934   9.352   7.200
   93ETHO   H1347868  13.086   9.252   7.218
   93ETHO    C247869  12.950   9.268   7.390
   93ETHO   H2147870  13.026   9.344   7.418
   93ETHO   H2347871  12.950   9.166   7.434
   94ETHO    O147872  12.823   9.332   7.414
   94ETHO    C147873  12.776   9.298   7.546
   94ETHO   H1147874  12.705   9.212   7.539
   94ETHO   H1347875  12.859   9.267   7.612
   94ETHO    C247876  12.719   9.416   7.620
   94ETHO   H2147877  12.662   9.377   7.707
   94ETHO   H2347878  12.637   9.454   7.556
   95ETHO    O147879  12.811   9.514   7.677
   95ETHO    C147880  12.832   9.634   7.603
   95ETHO   H1147881  12.834   9.595   7.499
   95ETHO   H1347882  12.929   9.678   7.634
   95ETHO    C247883  12.714   9.738   7.635
   95ETHO   H2147884  12.619   9.679   7.638
   95ETHO   H2347885  12.700   9.812   7.554
   96ETHO    O147886  12.722   9.815   7.758
   96ETHO    C147887  12.603   9.896   7.779
   96ETHO   H1147888  12.615   9.986   7.715
   96ETHO   H1347889  12.514   9.841   7.741
   96ETHO    C247890  12.574   9.936   7.919
   96ETHO   H2147891  12.548   9.851   7.985
   96ETHO   H2347892  12.486  10.003   7.908
   97ETHO    O147893  12.679  10.006   7.971
   97ETHO    C147894  12.700   9.970   8.111
   97ETHO   H1147895  12.682   9.863   8.136
   97ETHO   H1347896  12.630  10.028   8.175
   97ETHO    C247897  12.848   9.997   8.155
   97ETHO   H2147898  12.916   9.972   8.070
   97ETHO   H2347899  12.877   9.931   8.240
   98ETHO    O147900  12.873  10.137   8.192
   98ETHO    C147901  12.828  10.165   8.320
   98ETHO   H1147902  12.727  10.123   8.342
   98ETHO   H1347903  12.884  10.112   8.400
   98ETHO    C247904  12.838  10.316   8.361
   98ETHO   H2147905  12.755  10.376   8.319
   98ETHO   H2347906  12.932  10.359   8.320
   99ETHO    O147907  12.858  10.336   8.502
   99ETHO    C147908  12.733  10.332   8.572
   99ETHO   H1147909  12.694  10.227   8.567
   99ETHO   H1347910  12.659  10.390   8.512
   99ETHO    C247911  12.731  10.393   8.716
   99ETHO   H2147912  12.822  10.354   8.768
   99ETHO   H2347913  12.637  10.360   8.764
  100ETHO    O147914  12.738  10.533   8.737
  100ETHO    C147915  12.830  10.615   8.668
  100ETHO   H1147916  12.900  10.553   8.609
  100ETHO   H1347917  12.770  10.672   8.593
  100ETHO    C247918  12.902  10.712   8.764
  100ETHO   H2147919  12.842  10.729   8.856
  100ETHO   H2347920  12.914  10.815   8.722
  101PROX    O147921  13.031  10.659   8.795
  101PROX    C147922  13.106  10.753   8.878
  101PROX   H1147923  13.132  10.839   8.813
  101PROX   H1347924  13.054  10.789   8.969
  101PROX    C247925  13.239  10.688   8.933
  101PROX   H2147926  13.304  10.653   8.850
  101PROX    C347927  13.215  10.580   9.041
  101PROX   H3147928  13.165  10.626   9.129
  101PROX   H3247929  13.152  10.496   9.004
  101PROX   H3347930  13.311  10.540   9.080
  102PROX    O147931  13.311  10.788   9.006
  102PROX    C147932  13.413  10.847   8.929
  102PROX   H1147933  13.479  10.777   8.873
  102PROX   H1347934  13.363  10.896   8.843
  102PROX    C247935  13.503  10.949   9.010
  102PROX   H2147936  13.446  10.985   9.098
  102PROX    C347937  13.551  11.075   8.924
  102PROX   H3147938  13.463  11.133   8.889
  102PROX   H3247939  13.601  11.141   8.997
  102PROX   H3347940  13.612  11.046   8.836
  103PROX    O147941  13.629  10.888   9.043
  103PROX    C147942  13.628  10.783   9.134
  103PROX   H1147943  13.538  10.723   9.107
  103PROX   H1347944  13.714  10.717   9.111
  103PROX    C247945  13.642  10.840   9.275
  103PROX   H2147946  13.558  10.910   9.295
  103PROX    C347947  13.766  10.922   9.297
  103PROX   H3147948  13.858  10.867   9.267
  103PROX   H3247949  13.756  11.009   9.228
  103PROX   H3347950  13.773  10.959   9.401
  104PROX    O147951  13.648  10.738   9.371
  104PROX    C147952  13.527  10.672   9.377
  104PROX   H1147953  13.444  10.746   9.384
  104PROX   H1347954  13.521  10.602   9.292
  104PROX    C247955  13.512  10.592   9.506
  104PROX   H2147956  13.499  10.659   9.593
  104PROX    C347957  13.636  10.513   9.554
  104PROX   H3147958  13.725  10.574   9.577
  104PROX   H3247959  13.618  10.441   9.637
  104PROX   H3347960  13.668  10.448   9.470
  105PROX    O147961  13.400  10.495   9.487
  105PROX    C147962  13.273  10.559   9.468
  105PROX   H1147963  13.268  10.632   9.551
  105PROX   H1347964  13.266  10.599   9.364
  105PROX    C247965  13.146  10.468   9.477
  105PROX   H2147966  13.130  10.446   9.585
  105PROX    C347967  13.169  10.335   9.399
  105PROX   H3147968  13.210  10.361   9.298
  105PROX   H3247969  13.252  10.277   9.445
  105PROX   H3347970  13.075  10.278   9.389
  106PROX    O147971  13.038  10.536   9.415
  106PROX    C147972  12.988  10.639   9.505
  106PROX   H1147973  12.905  10.592   9.563
  106PROX   H1347974  13.054  10.691   9.577
  106PROX    C247975  12.924  10.751   9.415
  106PROX   H2147976  12.853  10.802   9.484
  106PROX    C347977  12.845  10.688   9.297
  106PROX   H3147978  12.919  10.659   9.219
  106PROX   H3247979  12.780  10.601   9.320
  106PROX   H3347980  12.784  10.775   9.266
  107PROX    O147981  13.031  10.834   9.366
  107PROX    C147982  12.997  10.971   9.361
  107PROX   H1147983  12.938  10.984   9.268
  107PROX   H1347984  12.946  11.008   9.452
  107PROX    C247985  13.119  11.069   9.339
  107PROX   H2147986  13.066  11.163   9.314
  107PROX    C347987  13.216  11.024   9.237
  107PROX   H3147988  13.261  10.925   9.257
  107PROX   H3247989  13.179  11.025   9.132
  107PROX   H3347990  13.299  11.098   9.242
  108PROX    O147991  13.190  11.101   9.459
  108PROX    C147992  13.253  10.982   9.520
  108PROX   H1147993  13.174  10.909   9.550
  108PROX   H1347994  13.323  10.929   9.452
  108PROX    C247995  13.333  11.016   9.645
  108PROX   H2147996  13.405  11.095   9.616
  108PROX    C347997  13.410  10.898   9.698
  108PROX   H3147998  13.461  10.909   9.796
  108PROX   H3247999  13.336  10.815   9.707
  108PROX   H3348000  13.485  10.857   9.627
  109PROX    O148001  13.240  11.054   9.752
  109PROX    C148002  13.204  11.192   9.751
  109PROX   H1148003  13.288  11.264   9.764
  109PROX   H1348004  13.163  11.228   9.654
  109PROX    C248005  13.106  11.222   9.860
  109PROX   H2148006  13.030  11.142   9.874
  109PROX    C348007  13.054  11.368   9.835
  109PROX   H3148008  12.994  11.398   9.923
  109PROX   H3248009  13.127  11.451   9.820
  109PROX   H3348010  12.990  11.367   9.744
  110PROX    O148011  13.173  11.232   9.985
  110PROX    C148012  13.189  11.111  10.055
  110PROX   H1148013  13.086  11.075  10.075
  110PROX   H1348014  13.247  11.036   9.997
  110PROX    C248015  13.260  11.138  10.186
  110PROX   H2148016  13.212  11.223  10.240
  110PROX    C348017  13.406  11.166  10.172
  110PROX   H3148018  13.457  11.084  10.116
  110PROX   H3248019  13.429  11.256  10.111
  110PROX   H3348020  13.451  11.174  10.273
  111PROX    O148021  13.246  11.018  10.264
  111PROX    C148022  13.116  11.003  10.327
  111PROX   H1148023  13.070  11.099  10.359
  111PROX   H1348024  13.047  10.946  10.261
  111PROX    C248025  13.150  10.906  10.456
  111PROX   H2148026  13.251  10.938  10.490
  111PROX    C348027  13.153  10.763  10.401
  111PROX   H3148028  13.206  10.749  10.304
  111PROX   H3248029  13.202  10.693  10.473
  111PROX   H3348030  13.052  10.722  10.381
  112PROX    O148031  13.059  10.924  10.561
  112PROX    C148032  13.079  11.044  10.637
  112PROX   H1148033  13.170  11.032  10.700
  112PROX   H1348034  13.102  11.132  10.574
  112PROX    C248035  12.959  11.084  10.728
  112PROX   H2148036  12.993  11.150  10.810
  112PROX    C348037  12.905  10.958  10.804
  112PROX   H3148038  12.985  10.916  10.870
  112PROX   H3248039  12.824  10.994  10.871
  112PROX   H3348040  12.865  10.881  10.735
  113PROX    O148041  12.859  11.165  10.660
  113PROX    C148042  12.798  11.090  10.559
  113PROX   H1148043  12.871  11.043  10.490
  113PROX   H1348044  12.734  11.011  10.604
  113PROX    C248045  12.698  11.178  10.478
  113PROX   H2148046  12.647  11.238  10.556
  113PROX    C348047  12.596  11.101  10.407
  113PROX   H3148048  12.554  11.158  10.322
  113PROX   H3248049  12.646  11.016  10.356
  113PROX   H3348050  12.523  11.060  10.480
  114PROX    O148051  12.765  11.252  10.380
  114PROX    C148052  12.837  11.362  10.437
  114PROX   H1148053  12.772  11.426  10.501
  114PROX   H1348054  12.918  11.325  10.503
  114PROX    C248055  12.886  11.457  10.327
  114PROX   H2148056  12.802  11.489  10.261
  114PROX    C348057  12.976  11.372  10.234
  114PROX   H3148058  13.003  11.423  10.139
  114PROX   H3248059  13.062  11.345  10.299
  114PROX   H3348060  12.921  11.280  10.204
  115PROX    O148061  12.941  11.583  10.379
  115PROX    C148062  13.020  11.654  10.282
  115PROX   H1148063  13.119  11.606  10.267
  115PROX   H1348064  12.960  11.656  10.188
  115PROX    C248065  13.050  11.800  10.326
  115PROX   H2148066  13.126  11.834  10.253
  115PROX    C348067  13.094  11.821  10.478
  115PROX   H3148068  13.124  11.926  10.498
  115PROX   H3248069  13.005  11.792  10.537
  115PROX   H3348070  13.177  11.750  10.497
  116PROX    O148071  12.938  11.881  10.299
  116PROX    C148072  12.969  12.025  10.297
  116PROX   H1148073  12.909  12.069  10.380
  116PROX   H1348074  13.071  12.053  10.332
  116PROX    C248075  12.923  12.103  10.167
  116PROX   H2148076  12.929  12.211  10.193
  116PROX    C348077  12.775  12.067  10.131
  116PROX   H3148078  12.767  11.957  10.120
  116PROX   H3248079  12.706  12.099  10.211
  116PROX   H3348080  12.737  12.102  10.032
  117PROX    O148081  13.017  12.082  10.062
  117PROX    C148082  13.006  11.956   9.992
  117PROX   H1148083  12.967  11.873  10.056
  117PROX   H1348084  12.934  11.954   9.907
  117PROX    C248085  13.149  11.916   9.934
  117PROX   H2148086  13.178  11.987   9.853
  117PROX    C348087  13.143  11.768   9.896
  117PROX   H3148088  13.237  11.740   9.844
  117PROX   H3248089  13.122  11.703   9.984
  117PROX   H3348090  13.055  11.758   9.828
  118PROX    O148091  13.242  11.912  10.052
  118PROX    C148092  13.379  11.931  10.017
  118PROX   H1148093  13.424  11.847   9.959
  118PROX   H1348094  13.397  12.030   9.970
  118PROX    C248095  13.471  11.932  10.146
  118PROX   H2148096  13.420  11.983  10.231
  118PROX    C348097  13.594  12.007  10.113
  118PROX   H3148098  13.575  12.116  10.100
  118PROX   H3248099  13.661  11.993  10.201
  118PROX   H3348100  13.647  11.965  10.024
  119PROX    O148101  13.509  11.800  10.182
  119PROX    C148102  13.396  11.732  10.245
  119PROX   H1148103  13.332  11.797  10.309
  119PROX   H1348104  13.328  11.690  10.169
  119PROX    C248105  13.452  11.612  10.322
  119PROX   H2148106  13.536  11.653  10.382
  119PROX    C348107  13.496  11.506  10.222
  119PROX   H3148108  13.556  11.553  10.141
  119PROX   H3248109  13.548  11.417  10.265
  119PROX   H3348110  13.413  11.458  10.166
  120PROX    O148111  13.353  11.561  10.410
  120PROX    C148112  13.410  11.500  10.520
  120PROX   H1148113  13.512  11.458  10.506
  120PROX   H1348114  13.426  11.571  10.604
  120PROX    C248115  13.316  11.388  10.551
  120PROX   H2148116  13.298  11.330  10.458
  120PROX    C348117  13.182  11.438  10.613
  120PROX   H3148118  13.130  11.508  10.544
  120PROX   H3248119  13.113  11.352  10.626
  120PROX   H3348120  13.193  11.491  10.710
  121PROX    O148121  13.366  11.312  10.661
  121PROX    C148122  13.442  11.210  10.601
  121PROX   H1148123  13.380  11.137  10.545
  121PROX   H1348124  13.532  11.248  10.548
  121PROX    C248125  13.499  11.122  10.717
  121PROX   H2148126  13.416  11.077  10.774
  121PROX    C348127  13.594  11.211  10.806
  121PROX   H3148128  13.546  11.306  10.837
  121PROX   H3248129  13.625  11.167  10.903
  121PROX   H3348130  13.689  11.239  10.755
  122PROX    O148131  13.577  11.017  10.663
  122PROX    C148132  13.510  10.891  10.654
  122PROX   H1148133  13.505  10.840  10.752
  122PROX   H1348134  13.404  10.911  10.628
  122PROX    C248135  13.574  10.817  10.533
  122PROX   H2148136  13.681  10.793  10.554
  122PROX    C348137  13.578  10.900  10.400
  122PROX   H3148138  13.477  10.913  10.355
  122PROX   H3248139  13.621  11.001  10.414
  122PROX   H3348140  13.646  10.850  10.328
  123PROX    O148141  13.507  10.696  10.520
  123PROX    C148142  13.573  10.602  10.438
  123PROX   H1148143  13.674  10.641  10.411
  123PROX   H1348144  13.602  10.510  10.493
  123PROX    C248145  13.485  10.567  10.315
  123PROX   H2148146  13.424  10.655  10.285
  123PROX    C348147  13.387  10.452  10.352
  123PROX   H3148148  13.316  10.486  10.430
  123PROX   H3248149  13.312  10.427  10.274
  123PROX   H3348150  13.438  10.359  10.387
  124PROX    O148151  13.556  10.519  10.200
  124PROX    C148152  13.586  10.620  10.107
  124PROX   H1148153  13.489  10.660  10.070
  124PROX   H1348154  13.631  10.713  10.148
  124PROX    C248155  13.677  10.559   9.992
  124PROX   H2148156  13.636  10.468   9.943
  124PROX    C348157  13.815  10.507  10.039
  124PROX   H3148158  13.795  10.421  10.106
  124PROX   H3248159  13.877  10.468   9.956
  124PROX   H3348160  13.881  10.579  10.092
  125PROX    O148161  13.700  10.657   9.889
  125PROX    C148162  13.758  10.779   9.925
  125PROX   H1148163  13.684  10.844   9.977
  125PROX   H1348164  13.833  10.758  10.004
  125PROX    C248165  13.818  10.861   9.807
  125PROX   H2148166  13.736  10.874   9.732
  125PROX    C348167  13.926  10.773   9.733
  125PROX   H3148168  13.886  10.681   9.685
  125PROX   H3248169  13.972  10.836   9.654
  125PROX   H3348170  14.007  10.735   9.799
  126PROX    O148171  13.858  10.992   9.857
  126PROX    C148172  13.762  11.092   9.827
  126PROX   H1148173  13.755  11.084   9.716
  126PROX   H1348174  13.669  11.061   9.879
  126PROX    C248175  13.820  11.232   9.871
  126PROX   H2148176  13.926  11.228   9.838
  126PROX    C348177  13.810  11.259  10.024
  126PROX   H3148178  13.706  11.238  10.058
  126PROX   H3248179  13.864  11.182  10.084
  126PROX   H3348180  13.835  11.365  10.050
  127PROX    O148181  13.756  11.337   9.796
  127PROX    C148182  13.626  11.363   9.844
  127PROX   H1148183  13.566  11.270   9.858
  127PROX   H1348184  13.629  11.414   9.943
  127PROX    C248185  13.547  11.449   9.745
  127PROX   H2148186  13.614  11.517   9.688
  127PROX    C348187  13.436  11.526   9.808
  127PROX   H3148188  13.378  11.579   9.729
  127PROX   H3248189  13.372  11.477   9.884
  127PROX   H3348190  13.487  11.608   9.862
  128PROX    O148191  13.491  11.368   9.642
  128PROX    C148192  13.573  11.337   9.528
  128PROX   H1148193  13.632  11.427   9.498
  128PROX   H1348194  13.647  11.260   9.558
  128PROX    C248195  13.487  11.304   9.401
  128PROX   H2148196  13.413  11.227   9.432
  128PROX    C348197  13.572  11.251   9.286
  128PROX   H3148198  13.516  11.269   9.192
  128PROX   H3248199  13.668  11.305   9.280
  128PROX   H3348200  13.597  11.143   9.285
  129PROX    O148201  13.422  11.431   9.360
  129PROX    C148202  13.319  11.466   9.446
  129PROX   H1148203  13.299  11.383   9.517
  129PROX   H1348204  13.336  11.563   9.497
  129PROX    C248205  13.183  11.473   9.375
  129PROX   H2148206  13.171  11.383   9.311
  129PROX    C348207  13.186  11.604   9.285
  129PROX   H3148208  13.272  11.616   9.216
  129PROX   H3248209  13.088  11.606   9.233
  129PROX   H3348210  13.185  11.690   9.356
  130PROX    O148211  13.082  11.497   9.474
  130PROX    C148212  12.955  11.445   9.434
  130PROX   H1148213  12.942  11.451   9.324
  130PROX   H1348214  12.958  11.336   9.456
  130PROX    C248215  12.850  11.525   9.518
  130PROX   H2148216  12.886  11.564   9.616
  130PROX    C348217  12.725  11.442   9.553
  130PROX   H3148218  12.671  11.509   9.623
  130PROX   H3248219  12.656  11.424   9.468
  130PROX   H3348220  12.746  11.348   9.610
  131PROX    O148221  12.804  11.638   9.448
  131PROX    C148222  12.889  11.748   9.452
  131PROX   H1148223  12.988  11.714   9.488
  131PROX   H1348224  12.924  11.774   9.349
  131PROX    C248225  12.843  11.863   9.538
  131PROX   H2148226  12.744  11.897   9.502
  131PROX    C348227  12.943  11.973   9.535
  131PROX   H3148228  12.919  12.051   9.611
  131PROX   H3248229  13.046  11.948   9.568
  131PROX   H3348230  12.941  12.027   9.438
  132PROX    O148231  12.838  11.818   9.674
  132PROX    C148232  12.701  11.798   9.718
  132PROX   H1148233  12.648  11.894   9.699
  132PROX   H1348234  12.650  11.717   9.662
  132PROX    C248235  12.688  11.768   9.866
  132PROX   H2148236  12.715  11.856   9.929
  132PROX    C348237  12.766  11.650   9.908
  132PROX   H3148238  12.716  11.552   9.890
  132PROX   H3248239  12.866  11.651   9.859
  132PROX   H3348240  12.803  11.666  10.012
  133PROX    O148241  12.552  11.750   9.901
  133PROX    C148242  12.480  11.861   9.961
  133PROX   H1148243  12.508  11.881  10.066
  133PROX   H1348244  12.499  11.955   9.905
  133PROX    C248245  12.327  11.844   9.952
  133PROX   H2148246  12.289  11.743   9.979
  133PROX    C348247  12.278  11.865   9.802
  133PROX   H3148248  12.276  11.974   9.778
  133PROX   H3248249  12.339  11.801   9.734
  133PROX   H3348250  12.173  11.834   9.786
  134PROX    O148251  12.267  11.944  10.028
  134PROX    C148252  12.261  11.921  10.171
  134PROX   H1148253  12.170  11.866  10.203
  134PROX   H1348254  12.351  11.864  10.202
  134PROX    C248255  12.266  12.052  10.251
  134PROX   H2148256  12.190  12.125  10.216
  134PROX    C348257  12.406  12.125  10.244
  134PROX   H3148258  12.488  12.056  10.275
  134PROX   H3248259  12.413  12.150  10.136
  134PROX   H3348260  12.404  12.214  10.311
  135PROX    O148261  12.258  12.027  10.389
  135PROX    C148262  12.130  11.990  10.436
  135PROX   H1148263  12.087  12.060  10.510
  135PROX   H1348264  12.059  11.983  10.352
  135PROX    C248265  12.134  11.843  10.491
  135PROX   H2148266  12.190  11.777  10.421
  135PROX    C348267  11.989  11.799  10.504
  135PROX   H3148268  11.936  11.834  10.413
  135PROX   H3248269  11.987  11.689  10.521
  135PROX   H3348270  11.931  11.843  10.588
  136PROX    O148271  12.193  11.840  10.620
  136PROX    C148272  12.238  11.713  10.662
  136PROX   H1148273  12.158  11.636  10.660
  136PROX   H1348274  12.320  11.675  10.597
  136PROX    C248275  12.308  11.712  10.797
  136PROX   H2148276  12.225  11.703  10.869
  136PROX    C348277  12.387  11.844  10.837
  136PROX   H3148278  12.326  11.934  10.812
  136PROX   H3248279  12.411  11.845  10.946
  136PROX   H3348280  12.482  11.865  10.783
  137PROX    O148281  12.389  11.592  10.794
  137PROX    C148282  12.434  11.558  10.925
  137PROX   H1148283  12.517  11.631  10.938
  137PROX   H1348284  12.354  11.578  10.999
  137PROX    C248285  12.480  11.406  10.933
  137PROX   H2148286  12.552  11.400  10.849
  137PROX    C348287  12.368  11.304  10.916
  137PROX   H3148288  12.289  11.297  10.994
  137PROX   H3248289  12.302  11.334  10.831
  137PROX   H3348290  12.410  11.202  10.901
  138PROX    O148291  12.544  11.365  11.058
  138PROX    C148292  12.668  11.431  11.082
  138PROX   H1148293  12.670  11.536  11.045
  138PROX   H1348294  12.690  11.437  11.191
  138PROX    C248295  12.794  11.362  11.020
  138PROX   H2148296  12.754  11.320  10.925
  138PROX    C348297  12.858  11.257  11.116
  138PROX   H3148298  12.789  11.173  11.137
  138PROX   H3248299  12.949  11.213  11.069
  138PROX   H3348300  12.872  11.300  11.217
  139PROX    O148301  12.891  11.458  10.986
  139PROX    C148302  12.858  11.529  10.867
  139PROX   H1148303  12.917  11.488  10.782
  139PROX   H1348304  12.749  11.524  10.845
  139PROX    C248305  12.893  11.679  10.880
  139PROX   H2148306  12.997  11.684  10.917
  139PROX    C348307  12.809  11.752  10.988
  139PROX   H3148308  12.843  11.704  11.082
  139PROX   H3248309  12.818  11.862  10.993
  139PROX   H3348310  12.700  11.736  10.974
  140PROX    O148311  12.866  11.745  10.750
  140PROX    C148312  12.730  11.727  10.694
  140PROX   H1148313  12.714  11.626  10.651
  140PROX   H1348314  12.653  11.738  10.773
  140PROX    C248315  12.708  11.831  10.586
  140PROX   H2148316  12.781  11.797  10.510
  140PROX    C348317  12.728  11.973  10.632
  140PROX   H3148318  12.678  12.004  10.726
  140PROX   H3248319  12.837  11.984  10.652
  140PROX   H3348320  12.702  12.041  10.548
  141PROX    O148321  12.571  11.814  10.535
  141PROX    C148322  12.566  11.800  10.392
  141PROX   H1148323  12.478  11.855  10.351
  141PROX   H1348324  12.651  11.857  10.349
  141PROX    C248325  12.560  11.654  10.362
  141PROX   H2148326  12.630  11.599  10.429
  141PROX    C348327  12.589  11.633  10.215
  141PROX   H3148328  12.585  11.529  10.179
  141PROX   H3248329  12.517  11.677  10.143
  141PROX   H3348330  12.685  11.684  10.189
  142PROX    O148331  12.435  11.603  10.389
  142PROX    C148332  12.430  11.459  10.387
  142PROX   H1148333  12.468  11.416  10.292
  142PROX   H1348334  12.497  11.427  10.469
  142PROX    C248335  12.286  11.396  10.412
  142PROX   H2148336  12.227  11.455  10.485
  142PROX    C348337  12.300  11.255  10.467
  142PROX   H3148338  12.201  11.209  10.488
  142PROX   H3248339  12.357  11.189  10.398
  142PROX   H3348340  12.356  11.259  10.563
  143PROX    O148341  12.215  11.380  10.299
  143PROX    C148342  12.117  11.483  10.295
  143PROX   H1148343  12.041  11.475  10.376
  143PROX   H1348344  12.163  11.582  10.314
  143PROX    C248345  12.048  11.468  10.164
  143PROX   H2148346  12.119  11.420  10.094
  143PROX    C348347  12.002  11.601  10.107
  143PROX   H3148348  11.932  11.658  10.171
  143PROX   H3248349  12.083  11.671  10.078
  143PROX   H3348350  11.955  11.583  10.008
  144PROX    O148351  11.931  11.386  10.178
  144PROX    C148352  11.954  11.256  10.239
  144PROX   H1148353  12.061  11.230  10.222
  144PROX   H1348354  11.932  11.261  10.348
  144PROX    C248355  11.874  11.141  10.173
  144PROX   H2148356  11.767  11.171  10.170
  144PROX    C348357  11.898  11.014  10.255
  144PROX   H3148358  11.845  10.924  10.217
  144PROX   H3248359  12.004  10.979  10.249
  144PROX   H3348360  11.869  11.025  10.362
  145PROX    O148361  11.921  11.126  10.038
  145PROX    C148362  11.827  11.177   9.942
  145PROX   H1148363  11.756  11.097   9.910
  145PROX   H1348364  11.768  11.258   9.990
  145PROX    C248365  11.887  11.236   9.822
  145PROX   H2148366  11.967  11.298   9.867
  145PROX    C348367  11.786  11.328   9.744
  145PROX   H3148368  11.781  11.434   9.778
  145PROX   H3248369  11.831  11.335   9.643
  145PROX   H3348370  11.687  11.278   9.749
  146PROX    O148371  11.937  11.133   9.743
  146PROX    C148372  12.076  11.156   9.704
  146PROX   H1148373  12.085  11.253   9.650
  146PROX   H1348374  12.136  11.154   9.797
  146PROX    C248375  12.113  11.038   9.608
  146PROX   H2148376  12.042  11.039   9.523
  146PROX    C348377  12.098  10.902   9.688
  146PROX   H3148378  12.187  10.887   9.753
  146PROX   H3248379  12.004  10.902   9.745
  146PROX   H3348380  12.104  10.823   9.609
  147PROX    O148381  12.240  11.071   9.554
  147PROX    C148382  12.285  10.967   9.463
  147PROX   H1148383  12.265  10.862   9.492
  147PROX   H1348384  12.233  10.984   9.367
  147PROX    C248385  12.437  10.973   9.438
  147PROX   H2148386  12.461  11.077   9.408
  147PROX    C348387  12.481  10.881   9.324
  147PROX   H3148388  12.421  10.915   9.236
  147PROX   H3248389  12.588  10.905   9.306
  147PROX   H3348390  12.477  10.770   9.337
  148PROX    O148391  12.498  10.945   9.559
  148PROX    C148392  12.640  10.993   9.567
  148PROX   H1148393  12.692  10.956   9.476
  148PROX   H1348394  12.629  11.103   9.562
  148PROX    C248395  12.697  10.947   9.701
  148PROX   H2148396  12.634  10.970   9.789
  148PROX    C348397  12.828  11.029   9.744
  148PROX   H3148398  12.800  11.126   9.790
  148PROX   H3248399  12.893  10.969   9.812
  148PROX   H3348400  12.888  11.042   9.651
  149PROX    O148401  12.735  10.809   9.689
  149PROX    C148402  12.628  10.720   9.718
  149PROX   H1148403  12.624  10.686   9.824
  149PROX   H1348404  12.532  10.776   9.720
  149PROX    C248405  12.604  10.597   9.623
  149PROX   H2148406  12.655  10.619   9.527
  149PROX    C348407  12.455  10.571   9.602
  149PROX   H3148408  12.455  10.493   9.522
  149PROX   H3248409  12.409  10.531   9.694
  149PROX   H3348410  12.414  10.669   9.568
  150PROX    O148411  12.663  10.481   9.681
  150PROX    C148412  12.679  10.380   9.576
  150PROX   H1148413  12.576  10.346   9.550
  150PROX   H1348414  12.718  10.424   9.482
  150PROX    C248415  12.772  10.265   9.613
  150PROX   H2148416  12.866  10.322   9.631
  150PROX    C348417  12.802  10.158   9.509
  150PROX   H3148418  12.894  10.103   9.540
  150PROX   H3248419  12.716  10.088   9.500
  150PROX   H3348420  12.831  10.201   9.411
  151PROX    O148421  12.723  10.208   9.733
  151PROX    C148422  12.820  10.225   9.833
  151PROX   H1148423  12.843  10.333   9.841
  151PROX   H1348424  12.766  10.204   9.928
  151PROX    C248425  12.942  10.142   9.809
  151PROX   H2148426  12.999  10.174   9.720
  151PROX    C348427  12.918   9.990   9.805
  151PROX   H3148428  12.855   9.955   9.888
  151PROX   H3248429  12.867   9.961   9.710
  151PROX   H3348430  13.018   9.942   9.813
  152PROX    O148431  13.030  10.151   9.920
  152PROX    C148432  13.170  10.175   9.882
  152PROX   H1148433  13.234  10.140   9.966
  152PROX   H1348434  13.181  10.120   9.786
  152PROX    C248435  13.191  10.323   9.861
  152PROX   H2148436  13.101  10.370   9.816
  152PROX    C348437  13.313  10.339   9.771
  152PROX   H3148438  13.389  10.270   9.812
  152PROX   H3248439  13.289  10.340   9.662
  152PROX   H3348440  13.345  10.443   9.795
  153PROX    O148441  13.228  10.386   9.990
  153PROX    C148442  13.117  10.426  10.064
  153PROX   H1148443  13.027  10.362  10.047
  153PROX   H1348444  13.139  10.439  10.172
  153PROX    C248445  13.072  10.567  10.019
  153PROX   H2148446  13.023  10.566   9.920
  153PROX    C348447  13.187  10.669  10.009
  153PROX   H3148448  13.161  10.768   9.968
  153PROX   H3248449  13.224  10.692  10.111
  153PROX   H3348450  13.274  10.622   9.959
  154PROX    O148451  12.976  10.616  10.111
  154PROX    C148452  12.914  10.741  10.071
  154PROX   H1148453  12.983  10.827  10.081
  154PROX   H1348454  12.874  10.734   9.968
  154PROX    C248455  12.791  10.759  10.163
  154PROX   H2148456  12.726  10.672  10.139
  154PROX    C348457  12.728  10.893  10.120
  154PROX   H3148458  12.629  10.898  10.169
  154PROX   H3248459  12.782  10.985  10.154
  154PROX   H3348460  12.704  10.906  10.012
  155PROX    O148461  12.838  10.765  10.297
  155PROX    C148462  12.732  10.741  10.387
  155PROX   H1148463  12.716  10.841  10.433
  155PROX   H1348464  12.635  10.712  10.343
  155PROX    C248465  12.768  10.642  10.493
  155PROX   H2148466  12.870  10.663  10.531
  155PROX    C348467  12.750  10.493  10.451
  155PROX   H3148468  12.645  10.472  10.424
  155PROX   H3248469  12.816  10.462  10.367
  155PROX   H3348470  12.790  10.436  10.538
  156PROX    O148471  12.687  10.674  10.610
  156PROX    C148472  12.733  10.612  10.730
  156PROX   H1148473  12.698  10.506  10.723
  156PROX   H1348474  12.844  10.619  10.739
  156PROX    C248475  12.657  10.668  10.852
  156PROX   H2148476  12.673  10.778  10.859
  156PROX    C348477  12.709  10.596  10.972
  156PROX   H3148478  12.690  10.487  10.967
  156PROX   H3248479  12.818  10.613  10.980
  156PROX   H3348480  12.650  10.637  11.057
  157PROX    O148481  12.517  10.638  10.845
  157PROX    C148482  12.433  10.738  10.906
  157PROX   H1148483  12.342  10.689  10.947
  157PROX   H1348484  12.489  10.785  10.989
  157PROX    C248485  12.393  10.844  10.802
  157PROX   H2148486  12.335  10.797  10.720
  157PROX    C348487  12.508  10.930  10.746
  157PROX   H3148488  12.575  10.954  10.830
  157PROX   H3248489  12.568  10.868  10.675
  157PROX   H3348490  12.466  11.023  10.703
  158PROX    O148491  12.313  10.944  10.867
  158PROX    C148492  12.173  10.945  10.821
  158PROX   H1148493  12.142  10.839  10.837
  158PROX   H1348494  12.111  11.016  10.880
  158PROX    C248495  12.147  10.986  10.678
  158PROX   H2148496  12.233  11.051  10.652
  158PROX    C348497  12.009  11.061  10.664
  158PROX   H3148498  11.991  11.084  10.557
  158PROX   H3248499  11.926  10.997  10.702
  158PROX   H3348500  12.011  11.154  10.725
  159PROX    O148501  12.155  10.871  10.587
  159PROX    C148502  12.218  10.911  10.463
  159PROX   H1148503  12.170  11.003  10.423
  159PROX   H1348504  12.324  10.940  10.483
  159PROX    C248505  12.221  10.799  10.358
  159PROX   H2148506  12.125  10.743  10.367
  159PROX    C348507  12.333  10.691  10.374
  159PROX   H3148508  12.325  10.633  10.469
  159PROX   H3248509  12.330  10.612  10.295
  159PROX   H3348510  12.437  10.731  10.371
  160PROX    O148511  12.218  10.860  10.230
  160PROX    C148512  12.329  10.941  10.199
  160PROX   H1148513  12.303  11.044  10.231
  160PROX   H1348514  12.419  10.899  10.250
  160PROX    C248515  12.354  10.939  10.052
  160PROX   H2148516  12.256  10.959  10.004
  160PROX    C348517  12.387  10.796  10.005
  160PROX   H3148518  12.422  10.793   9.900
  160PROX   H3248519  12.469  10.756  10.069
  160PROX   H3348520  12.305  10.723  10.021
  161PROX    O148521  12.466  11.020  10.015
  161PROX    C148522  12.432  11.156  10.006
  161PROX   H1148523  12.333  11.153   9.955
  161PROX   H1348524  12.437  11.216  10.100
  161PROX    C248525  12.538  11.233   9.926
  161PROX   H2148526  12.577  11.170   9.844
  161PROX    C348527  12.656  11.272  10.013
  161PROX   H3148528  12.738  11.302   9.945
  161PROX   H3248529  12.626  11.359  10.075
  161PROX   H3348530  12.686  11.192  10.084
  162PROX    O148531  12.479  11.356   9.877
  162PROX    C148532  12.409  11.340   9.758
  162PROX   H1148533  12.489  11.317   9.685
  162PROX   H1348534  12.332  11.261   9.770
  162PROX    C248535  12.338  11.472   9.722
  162PROX   H2148536  12.421  11.545   9.716
  162PROX    C348537  12.237  11.510   9.830
  162PROX   H3148538  12.206  11.617   9.830
  162PROX   H3248539  12.149  11.442   9.827
  162PROX   H3348540  12.289  11.492   9.926
  163PROX    O148541  12.271  11.461   9.599
  163PROX    C148542  12.355  11.438   9.488
  163PROX   H1148543  12.440  11.509   9.493
  163PROX   H1348544  12.400  11.337   9.499
  163PROX    C248545  12.275  11.446   9.360
  163PROX   H2148546  12.255  11.551   9.329
  163PROX    C348547  12.134  11.391   9.380
  163PROX   H3148548  12.090  11.428   9.475
  163PROX   H3248549  12.069  11.415   9.294
  163PROX   H3348550  12.138  11.280   9.385
  164PROX    O148551  12.341  11.373   9.260
  164PROX    C148552  12.449  11.451   9.198
  164PROX   H1148553  12.411  11.549   9.161
  164PROX   H1348554  12.511  11.494   9.280
  164PROX    C248555  12.529  11.367   9.101
  164PROX   H2148556  12.474  11.379   9.005
  164PROX    C348557  12.538  11.222   9.144
  164PROX   H3148558  12.598  11.172   9.065
  164PROX   H3248559  12.595  11.201   9.237
  164PROX   H3348560  12.441  11.171   9.164
  165PROX    O148561  12.658  11.424   9.099
  165PROX    C148562  12.675  11.490   8.980
  165PROX   H1148563  12.663  11.422   8.893
  165PROX   H1348564  12.598  11.570   8.972
  165PROX    C248565  12.818  11.552   8.988
  165PROX   H2148566  12.884  11.479   9.039
  165PROX    C348567  12.815  11.677   9.073
  165PROX   H3148568  12.913  11.728   9.065
  165PROX   H3248569  12.738  11.748   9.036
  165PROX   H3348570  12.807  11.657   9.182
  166ETHO    O148571  12.865  11.589   8.861
  166ETHO    C148572  12.911  11.473   8.796
  166ETHO   H1148573  12.845  11.386   8.819
  166ETHO   H1348574  13.010  11.454   8.843
  166ETHO    C248575  12.910  11.483   8.650
  166ETHO   H2148576  12.971  11.405   8.600
  166ETHO   H2348577  12.945  11.578   8.606
  167ETHO    O148578  12.780  11.459   8.594
  167ETHO    C148579  12.768  11.407   8.461
  167ETHO   H1148580  12.813  11.474   8.385
  167ETHO   H1348581  12.816  11.308   8.450
  167ETHO    C248582  12.620  11.391   8.416
  167ETHO   H2148583  12.596  11.369   8.310
  167ETHO   H2348584  12.569  11.485   8.447
  168ETHO    O148585  12.592  11.278   8.500
  168ETHO    C148586  12.458  11.267   8.536
  168ETHO   H1148587  12.392  11.257   8.448
  168ETHO   H1348588  12.439  11.368   8.579
  168ETHO    C248589  12.447  11.163   8.639
  168ETHO   H2148590  12.342  11.137   8.663
  168ETHO   H2348591  12.506  11.192   8.729
  169ETHO    O148592  12.497  11.045   8.579
  169ETHO    C148593  12.517  10.939   8.677
  169ETHO   H1148594  12.608  10.876   8.672
  169ETHO   H1348595  12.524  10.984   8.779
  169ETHO    C248596  12.400  10.836   8.687
  169ETHO   H2148597  12.309  10.895   8.709
  169ETHO   H2348598  12.433  10.774   8.773
  170ETHO    O148599  12.383  10.767   8.563
  170ETHO    C148600  12.267  10.684   8.564
  170ETHO   H1148601  12.180  10.741   8.603
  170ETHO   H1348602  12.262  10.607   8.644
  170ETHO    C248603  12.228  10.632   8.426
  170ETHO   H2148604  12.127  10.589   8.445
  170ETHO   H2348605  12.289  10.552   8.379
  171ETHO    O148606  12.219  10.734   8.328
  171ETHO    C148607  12.121  10.699   8.223
  171ETHO   H1148608  12.133  10.592   8.197
  171ETHO   H1348609  12.017  10.705   8.262
  171ETHO    C248610  12.125  10.779   8.087
  171ETHO   H2148611  12.160  10.878   8.122
  171ETHO   H2348612  12.017  10.778   8.060
  172ETHO    O148613  12.201  10.719   7.987
  172ETHO    C148614  12.344  10.734   8.006
  172ETHO   H1148615  12.370  10.714   8.112
  172ETHO   H1348616  12.374  10.839   7.989
  172ETHO    C248617  12.425  10.650   7.905
  172ETHO   H2148618  12.533  10.673   7.921
  172ETHO   H2348619  12.399  10.675   7.800
  173ETHO    O148620  12.394  10.516   7.921
  173ETHO    C148621  12.488  10.442   7.834
  173ETHO   H1148622  12.472  10.480   7.731
  173ETHO   H1348623  12.592  10.457   7.868
  173ETHO    C248624  12.442  10.297   7.833
  173ETHO   H2148625  12.519  10.228   7.794
  173ETHO   H2348626  12.422  10.262   7.937
  174ETHO    O148627  12.329  10.289   7.752
  174ETHO    C148628  12.261  10.167   7.780
  174ETHO   H1148629  12.327  10.077   7.769
  174ETHO   H1348630  12.221  10.165   7.884
  174ETHO    C248631  12.152  10.156   7.675
  174ETHO   H2148632  12.198  10.159   7.574
  174ETHO   H2348633  12.088  10.246   7.690
  175ETHO    O148634  12.068  10.049   7.706
  175ETHO    C148635  11.978  10.042   7.599
  175ETHO   H1148636  11.921  10.136   7.590
  175ETHO   H1348637  12.040  10.036   7.507
  175ETHO    C248638  11.885   9.920   7.599
  175ETHO   H2148639  11.832   9.941   7.504
  175ETHO   H2348640  11.825   9.918   7.692
  176ETHO    O148641  11.955   9.790   7.579
  176ETHO    C148642  11.868   9.681   7.595
  176ETHO   H1148643  11.832   9.688   7.699
  176ETHO   H1348644  11.792   9.704   7.517
  176ETHO    C248645  11.927   9.552   7.552
  176ETHO   H2148646  11.891   9.468   7.614
  176ETHO   H2348647  12.038   9.548   7.549
  177ETHO    O148648  11.896   9.533   7.418
  177ETHO    C148649  11.994   9.457   7.341
  177ETHO   H1148650  12.004   9.350   7.372
  177ETHO   H1348651  12.098   9.495   7.347
  177ETHO    C248652  11.971   9.462   7.193
  177ETHO   H2148653  12.063   9.418   7.150
  177ETHO   H2348654  11.961   9.565   7.151
  178ETHO    O148655  11.852   9.388   7.163
  178ETHO    C148656  11.815   9.403   7.027
  178ETHO   H1148657  11.910   9.423   6.974
  178ETHO   H1348658  11.768   9.311   6.987
  178ETHO    C248659  11.712   9.518   6.996
  178ETHO   H2148660  11.738   9.543   6.891
  178ETHO   H2348661  11.725   9.612   7.053
  179ETHO    O148662  11.584   9.459   7.007
  179ETHO    C148663  11.487   9.530   6.931
  179ETHO   H1148664  11.534   9.558   6.834
  179ETHO   H1348665  11.468   9.623   6.989
  179ETHO    C248666  11.342   9.466   6.910
  179ETHO   H2148667  11.277   9.543   6.861
  179ETHO   H2348668  11.308   9.434   7.011
  180ETHO    O148669  11.348   9.348   6.829
  180ETHO    C148670  11.229   9.292   6.782
  180ETHO   H1148671  11.156   9.305   6.865
  180ETHO   H1348672  11.193   9.331   6.684
  180ETHO    C248673  11.247   9.143   6.775
  180ETHO   H2148674  11.154   9.093   6.740
  180ETHO   H2348675  11.267   9.114   6.880
  181ETHO    O148676  11.348   9.107   6.675
  181ETHO    C148677  11.423   8.993   6.713
  181ETHO   H1148678  11.352   8.908   6.706
  181ETHO   H1348679  11.454   8.997   6.820
  181ETHO    C248680  11.548   8.969   6.626
  181ETHO   H2148681  11.608   8.892   6.679
  181ETHO   H2348682  11.609   9.062   6.619
  182ETHO    O148683  11.524   8.908   6.499
  182ETHO    C148684  11.636   8.846   6.438
  182ETHO   H1148685  11.724   8.914   6.432
  182ETHO   H1348686  11.672   8.763   6.503
  182ETHO    C248687  11.612   8.781   6.302
  182ETHO   H2148688  11.531   8.706   6.315
  182ETHO   H2348689  11.704   8.724   6.279
  183ETHO    O148690  11.580   8.883   6.203
  183ETHO    C148691  11.550   8.823   6.079
  183ETHO   H1148692  11.440   8.820   6.064
  183ETHO   H1348693  11.603   8.727   6.064
  183ETHO    C248694  11.580   8.917   5.960
  183ETHO   H2148695  11.684   8.955   5.971
  183ETHO   H2348696  11.517   9.008   5.962
  184ETHO    O148697  11.565   8.849   5.841
  184ETHO    C148698  11.539   8.944   5.732
  184ETHO   H1148699  11.437   8.988   5.735
  184ETHO   H1348700  11.621   9.019   5.736
  184ETHO    C248701  11.537   8.875   5.599
  184ETHO   H2148702  11.638   8.828   5.600
  184ETHO   H2348703  11.529   8.941   5.510
  185ETHO    O148704  11.424   8.783   5.602
  185ETHO    C148705  11.417   8.724   5.478
  185ETHO   H1148706  11.315   8.678   5.480
  185ETHO   H1348707  11.406   8.793   5.391
  185ETHO    C248708  11.518   8.611   5.461
  185ETHO   H2148709  11.519   8.550   5.554
  185ETHO   H2348710  11.622   8.640   5.438
  186ETHO    O148711  11.462   8.516   5.371
  186ETHO    C148712  11.548   8.401   5.368
  186ETHO   H1148713  11.641   8.446   5.326
  186ETHO   H1348714  11.557   8.372   5.474
  186ETHO    C248715  11.479   8.284   5.298
  186ETHO   H2148716  11.557   8.210   5.269
  186ETHO   H2348717  11.432   8.325   5.206
  187ETHO    O148718  11.386   8.209   5.377
  187ETHO    C148719  11.332   8.104   5.299
  187ETHO   H1148720  11.270   8.155   5.223
  187ETHO   H1348721  11.411   8.042   5.251
  187ETHO    C248722  11.239   8.007   5.383
  187ETHO   H2148723  11.292   7.983   5.478
  187ETHO   H2348724  11.207   7.913   5.333
  188ETHO    O148725  11.120   8.080   5.415
  188ETHO    C148726  11.031   8.001   5.488
  188ETHO   H1148727  11.085   7.983   5.583
  188ETHO   H1348728  10.995   7.904   5.447
  188ETHO    C248729  10.909   8.091   5.522
  188ETHO   H2148730  10.829   8.033   5.572
  188ETHO   H2348731  10.874   8.141   5.429
  189ETHO    O148732  10.937   8.197   5.611
  189ETHO    C148733  10.842   8.306   5.596
  189ETHO   H1148734  10.885   8.376   5.522
  189ETHO   H1348735  10.743   8.272   5.557
  189ETHO    C248736  10.824   8.387   5.730
  189ETHO   H2148737  10.783   8.317   5.807
  189ETHO   H2348738  10.760   8.474   5.704
  190ETHO    O148739  10.943   8.433   5.789
  190ETHO    C148740  10.910   8.529   5.891
  190ETHO   H1148741  10.852   8.479   5.971
  190ETHO   H1348742  10.867   8.617   5.838
  190ETHO    C248743  11.033   8.577   5.967
  190ETHO   H2148744  11.074   8.485   6.014
  190ETHO   H2348745  11.009   8.655   6.042
  191ETHO    O148746  11.135   8.637   5.883
  191ETHO    C148747  11.267   8.619   5.933
  191ETHO   H1148748  11.324   8.700   5.884
  191ETHO   H1348749  11.273   8.639   6.042
  191ETHO    C248750  11.333   8.480   5.895
  191ETHO   H2148751  11.348   8.484   5.785
  191ETHO   H2348752  11.277   8.396   5.943
  192ETHO    O148753  11.454   8.479   5.968
  192ETHO    C148754  11.539   8.376   5.922
  192ETHO   H1148755  11.570   8.395   5.817
  192ETHO   H1348756  11.474   8.286   5.916
  192ETHO    C248757  11.659   8.356   6.017
  192ETHO   H2148758  11.733   8.438   6.023
  192ETHO   H2348759  11.717   8.273   5.971
  193ETHO    O148760  11.623   8.324   6.151
  193ETHO    C148761  11.558   8.200   6.177
  193ETHO   H1148762  11.451   8.225   6.158
  193ETHO   H1348763  11.600   8.125   6.108
  193ETHO    C248764  11.555   8.143   6.322
  193ETHO   H2148765  11.660   8.147   6.358
  193ETHO   H2348766  11.527   8.036   6.313
  194ETHO    O148767  11.467   8.204   6.417
  194ETHO    C148768  11.415   8.095   6.506
  194ETHO   H1148769  11.497   8.042   6.559
  194ETHO   H1348770  11.366   8.013   6.450
  194ETHO    C248771  11.324   8.141   6.616
  194ETHO   H2148772  11.370   8.231   6.661
  194ETHO   H2348773  11.300   8.057   6.685
  195ETHO    O148774  11.198   8.187   6.551
  195ETHO    C148775  11.113   8.257   6.640
  195ETHO   H1148776  11.012   8.268   6.594
  195ETHO   H1348777  11.105   8.183   6.722
  195ETHO    C248778  11.162   8.392   6.689
  195ETHO   H2148779  11.239   8.428   6.618
  195ETHO   H2348780  11.216   8.383   6.785
  196ETHO    O148781  11.060   8.480   6.694
  196ETHO    C148782  11.092   8.582   6.782
  196ETHO   H1148783  11.000   8.624   6.827
  196ETHO   H1348784  11.145   8.556   6.875
  196ETHO    C248785  11.168   8.692   6.700
  196ETHO   H2148786  11.252   8.636   6.653
  196ETHO   H2348787  11.204   8.765   6.776
  197ETHO    O148788  11.082   8.736   6.597
  197ETHO    C148789  11.154   8.795   6.488
  197ETHO   H1148790  11.169   8.901   6.518
  197ETHO   H1348791  11.260   8.761   6.488
  197ETHO    C248792  11.104   8.784   6.345
  197ETHO   H2148793  11.172   8.830   6.271
  197ETHO   H2348794  11.005   8.835   6.339
  198ETHO    O148795  11.094   8.650   6.316
  198ETHO    C148796  10.970   8.601   6.347
  198ETHO   H1148797  10.937   8.650   6.441
  198ETHO   H1348798  10.891   8.634   6.276
  198ETHO    C248799  10.948   8.446   6.355
  198ETHO   H2148800  11.013   8.413   6.439
  198ETHO   H2348801  10.979   8.394   6.262
  199ETHO    O148802  10.813   8.419   6.400
  199ETHO    C148803  10.735   8.378   6.292
  199ETHO   H1148804  10.792   8.312   6.224
  199ETHO   H1348805  10.699   8.473   6.247
  199ETHO    C248806  10.617   8.302   6.347
  199ETHO   H2148807  10.554   8.366   6.414
  199ETHO   H2348808  10.650   8.213   6.403
  200ETHO    O148809  10.541   8.259   6.233
  200ETHO    C148810  10.439   8.347   6.180
  200ETHO   H1148811  10.352   8.368   6.245
  200ETHO   H1348812  10.483   8.441   6.140
  200ETHO    C248813  10.374   8.272   6.059
  200ETHO   H2148814  10.458   8.249   5.989
  200ETHO   H2348815  10.306   8.343   6.007
  201ETHO    O148816  10.298   8.156   6.085
  201ETHO    C148817  10.259   8.091   5.964
  201ETHO   H1148818  10.330   8.114   5.882
  201ETHO   H1348819  10.159   8.132   5.938
  201ETHO    C248820  10.228   7.944   5.985
  201ETHO   H2148821  10.182   7.911   5.890
  201ETHO   H2348822  10.167   7.911   6.072
  202ETHO    O148823  10.350   7.871   5.993
  202ETHO    C148824  10.354   7.740   5.940
  202ETHO   H1148825  10.287   7.683   6.006
  202ETHO   H1348826  10.311   7.747   5.837
  202ETHO    C248827  10.495   7.681   5.941
  202ETHO   H2148828  10.563   7.726   5.865
  202ETHO   H2348829  10.479   7.573   5.920
  203ETHO    O148830  10.558   7.687   6.068
  203ETHO    C148831  10.697   7.644   6.061
  203ETHO   H1148832  10.735   7.635   5.957
  203ETHO   H1348833  10.724   7.548   6.111
  203ETHO    C248834  10.793   7.744   6.134
  203ETHO   H2148835  10.752   7.847   6.137
  203ETHO   H2348836  10.885   7.738   6.071
  204ETHO    O148837  10.832   7.704   6.265
  204ETHO    C148838  10.919   7.799   6.314
  204ETHO   H1148839  10.981   7.856   6.242
  204ETHO   H1348840  10.860   7.885   6.353
  204ETHO    C248841  11.013   7.742   6.427
  204ETHO   H2148842  11.093   7.813   6.457
  204ETHO   H2348843  11.053   7.651   6.379
  205ETHO    O148844  10.925   7.705   6.531
  205ETHO    C148845  10.995   7.624   6.631
  205ETHO   H1148846  10.972   7.667   6.731
  205ETHO   H1348847  11.105   7.617   6.620
  205ETHO    C248848  10.938   7.481   6.641
  205ETHO   H2148849  10.827   7.471   6.644
  205ETHO   H2348850  10.967   7.430   6.735
  206ETHO    O148851  10.977   7.396   6.524
  206ETHO    C148852  10.905   7.270   6.518
  206ETHO   H1148853  10.956   7.205   6.593
  206ETHO   H1348854  10.797   7.283   6.540
  206ETHO    C248855  10.931   7.193   6.384
  206ETHO   H2148856  11.039   7.201   6.358
  206ETHO   H2348857  10.907   7.086   6.398
  207ETHO    O148858  10.851   7.245   6.285
  207ETHO    C148859  10.726   7.177   6.276
  207ETHO   H1148860  10.686   7.170   6.379
  207ETHO   H1348861  10.748   7.077   6.233
  207ETHO    C248862  10.626   7.252   6.193
  207ETHO   H2148863  10.682   7.288   6.104
  207ETHO   H2348864  10.582   7.334   6.253
  208ETHO    O148865  10.519   7.170   6.150
  208ETHO    C148866  10.419   7.254   6.093
  208ETHO   H1148867  10.371   7.322   6.166
  208ETHO   H1348868  10.461   7.307   6.005
  208ETHO    C248869  10.295   7.176   6.053
  208ETHO   H2148870  10.209   7.245   6.041
  208ETHO   H2348871  10.275   7.096   6.128
  209ETHO    O148872  10.314   7.106   5.926
  209ETHO    C148873  10.199   7.026   5.894
  209ETHO   H1148874  10.115   7.087   5.855
  209ETHO   H1348875  10.167   6.970   5.985
  209ETHO    C248876  10.242   6.918   5.793
  209ETHO   H2148877  10.156   6.848   5.785
  209ETHO   H2348878  10.326   6.864   5.843
  210ETHO    O148879  10.290   6.966   5.670
  210ETHO    C148880  10.249   6.894   5.562
  210ETHO   H1148881  10.269   6.786   5.579
  210ETHO   H1348882  10.139   6.903   5.550
  210ETHO    C248883  10.323   6.929   5.426
  210ETHO   H2148884  10.315   6.830   5.376
  210ETHO   H2348885  10.425   6.967   5.449
  211ETHO    O148886  10.246   7.024   5.348
  211ETHO    C148887  10.242   7.153   5.407
  211ETHO   H1148888  10.163   7.216   5.360
  211ETHO   H1348889  10.213   7.137   5.513
  211ETHO    C248890  10.372   7.238   5.409
  211ETHO   H2148891  10.460   7.186   5.452
  211ETHO   H2348892  10.338   7.320   5.475
  212ETHO    O148893  10.414   7.314   5.293
  212ETHO    C148894  10.503   7.236   5.216
  212ETHO   H1148895  10.600   7.219   5.267
  212ETHO   H1348896  10.466   7.133   5.199
  212ETHO    C248897  10.522   7.299   5.082
  212ETHO   H2148898  10.540   7.408   5.094
  212ETHO   H2348899  10.427   7.292   5.025
  213ETHO    O148900  10.626   7.236   5.007
  213ETHO    C148901  10.632   7.273   4.868
  213ETHO   H1148902  10.529   7.296   4.831
  213ETHO   H1348903  10.699   7.361   4.857
  213ETHO    C248904  10.676   7.150   4.786
  213ETHO   H2148905  10.679   7.165   4.676
  213ETHO   H2348906  10.614   7.060   4.804
  214ETHO    O148907  10.806   7.113   4.828
  214ETHO    C148908  10.901   7.216   4.787
  214ETHO   H1148909  10.912   7.290   4.869
  214ETHO   H1348910  10.865   7.258   4.690
  214ETHO    C248911  11.043   7.163   4.766
  214ETHO   H2148912  11.068   7.096   4.851
  214ETHO   H2348913  11.113   7.249   4.763
  215ETHO    O148914  11.060   7.092   4.641
  215ETHO    C148915  11.193   7.053   4.628
  215ETHO   H1148916  11.251   7.148   4.633
  215ETHO   H1348917  11.220   6.998   4.721
  215ETHO    C248918  11.219   6.998   4.493
  215ETHO   H2148919  11.330   6.998   4.480
  215ETHO   H2348920  11.161   7.068   4.429
  216ETHO    O148921  11.165   6.867   4.480
  216ETHO    C148922  11.180   6.825   4.349
  216ETHO   H1148923  11.153   6.900   4.272
  216ETHO   H1348924  11.112   6.737   4.338
  216ETHO    C248925  11.326   6.787   4.318
  216ETHO   H2148926  11.388   6.870   4.359
  216ETHO   H2348927  11.332   6.800   4.208
  217ETHO    O148928  11.360   6.658   4.366
  217ETHO    C148929  11.427   6.659   4.488
  217ETHO   H1148930  11.517   6.720   4.462
  217ETHO   H1348931  11.374   6.710   4.571
  217ETHO    C248932  11.462   6.510   4.527
  217ETHO   H2148933  11.489   6.444   4.442
  217ETHO   H2348934  11.370   6.461   4.567
  218ETHO    O148935  11.556   6.501   4.637
  218ETHO    C148936  11.583   6.356   4.659
  218ETHO   H1148937  11.620   6.312   4.564
  218ETHO   H1348938  11.486   6.306   4.679
  218ETHO    C248939  11.684   6.335   4.765
  218ETHO   H2148940  11.772   6.387   4.722
  218ETHO   H2348941  11.711   6.227   4.770
  219ETHO    O148942  11.655   6.387   4.892
  219ETHO    C148943  11.577   6.288   4.956
  219ETHO   H1148944  11.477   6.272   4.910
  219ETHO   H1348945  11.636   6.193   4.950
  219ETHO    C248946  11.543   6.340   5.093
  219ETHO   H2148947  11.495   6.261   5.156
  219ETHO   H2348948  11.470   6.419   5.066
  220ETHO    O148949  11.651   6.396   5.166
  220ETHO    C148950  11.597   6.479   5.279
  220ETHO   H1148951  11.543   6.405   5.342
  220ETHO   H1348952  11.514   6.544   5.245
  220ETHO    C248953  11.703   6.566   5.343
  220ETHO   H2148954  11.773   6.507   5.407
  220ETHO   H2348955  11.654   6.639   5.410
  221ETHO    O148956  11.770   6.648   5.246
  221ETHO    C148957  11.878   6.725   5.300
  221ETHO   H1148958  11.841   6.812   5.358
  221ETHO   H1348959  11.942   6.666   5.369
  221ETHO    C248960  11.969   6.770   5.185
  221ETHO   H2148961  12.051   6.835   5.225
  221ETHO   H2348962  11.907   6.842   5.127
  222ETHO    O148963  12.031   6.663   5.113
  222ETHO    C148964  12.117   6.708   5.008
  222ETHO   H1148965  12.153   6.621   4.949
  222ETHO   H1348966  12.078   6.780   4.932
  222ETHO    C248967  12.253   6.785   5.055
  222ETHO   H2148968  12.333   6.756   4.984
  222ETHO   H2348969  12.278   6.732   5.149
  223ETHO    O148970  12.233   6.925   5.071
  223ETHO    C148971  12.328   6.973   5.160
  223ETHO   H1148972  12.325   6.927   5.261
  223ETHO   H1348973  12.428   6.953   5.117
  223ETHO    C248974  12.311   7.127   5.160
  223ETHO   H2148975  12.279   7.166   5.060
  223ETHO   H2348976  12.411   7.173   5.176
  224ETHO    O148977  12.226   7.176   5.264
  224ETHO    C148978  12.300   7.201   5.384
  224ETHO   H1148979  12.335   7.108   5.434
  224ETHO   H1348980  12.390   7.261   5.359
  224ETHO    C248981  12.234   7.284   5.484
  224ETHO   H2148982  12.153   7.225   5.533
  224ETHO   H2348983  12.187   7.370   5.432
  225ETHO    O148984  12.327   7.336   5.577
  225ETHO    C148985  12.263   7.414   5.681
  225ETHO   H1148986  12.307   7.393   5.781
  225ETHO   H1348987  12.155   7.388   5.688
  225ETHO    C248988  12.291   7.558   5.646
  225ETHO   H2148989  12.400   7.567   5.631
  225ETHO   H2348990  12.255   7.628   5.724
  226ETHO    O148991  12.226   7.595   5.524
  226ETHO    C148992  12.249   7.729   5.493
  226ETHO   H1148993  12.153   7.784   5.489
  226ETHO   H1348994  12.312   7.779   5.570
  226ETHO    C248995  12.300   7.754   5.343
  226ETHO   H2148996  12.384   7.683   5.330
  226ETHO   H2348997  12.346   7.856   5.339
  227ETHO    O148998  12.195   7.730   5.250
  227ETHO    C148999  12.221   7.808   5.134
  227ETHO   H1149000  12.324   7.801   5.093
  227ETHO   H1349001  12.206   7.914   5.163
  227ETHO    C249002  12.128   7.777   5.009
  227ETHO   H2149003  12.154   7.845   4.925
  227ETHO   H2349004  12.023   7.797   5.040
  228ETHO    O149005  12.134   7.639   4.968
  228ETHO    C149006  12.033   7.601   4.875
  228ETHO   H1149007  11.935   7.627   4.922
  228ETHO   H1349008  12.048   7.659   4.781
  228ETHO    C249009  12.006   7.450   4.845
  228ETHO   H2149010  11.909   7.432   4.794
  228ETHO   H2349011  12.006   7.391   4.939
  229ETHO    O149012  12.100   7.380   4.766
  229ETHO    C149013  12.092   7.426   4.633
  229ETHO   H1149014  12.107   7.536   4.623
  229ETHO   H1349015  11.990   7.408   4.593
  229ETHO    C249016  12.191   7.360   4.545
  229ETHO   H2149017  12.143   7.334   4.448
  229ETHO   H2349018  12.223   7.260   4.582
  230ETHO    O149019  12.316   7.429   4.531
  230ETHO    C149020  12.406   7.346   4.461
  230ETHO   H1149021  12.496   7.411   4.448
  230ETHO   H1349022  12.444   7.265   4.527
  230ETHO    C249023  12.372   7.297   4.319
  230ETHO   H2149024  12.465   7.275   4.263
  230ETHO   H2349025  12.330   7.383   4.263
  231ETHO    O149026  12.284   7.187   4.305
  231ETHO    C149027  12.285   7.143   4.168
  231ETHO   H1149028  12.381   7.098   4.137
  231ETHO   H1349029  12.261   7.222   4.094
  231ETHO    C249030  12.169   7.042   4.145
  231ETHO   H2149031  12.153   7.041   4.035
  231ETHO   H2349032  12.074   7.071   4.194
  232ETHO    O149033  12.206   6.910   4.180
  232ETHO    C149034  12.093   6.819   4.156
  232ETHO   H1149035  12.062   6.761   4.245
  232ETHO   H1349036  11.999   6.870   4.124
  232ETHO    C249037  12.140   6.718   4.046
  232ETHO   H2149038  12.204   6.767   3.970
  232ETHO   H2349039  12.043   6.690   4.000
  233ETHO    O149040  12.204   6.612   4.110
  233ETHO    C149041  12.189   6.497   4.038
  233ETHO   H1149042  12.084   6.472   4.065
  233ETHO   H1349043  12.212   6.520   3.931
  233ETHO    C249044  12.272   6.383   4.085
  233ETHO   H2149045  12.381   6.398   4.076
  233ETHO   H2349046  12.257   6.299   4.014
  234ETHO    O149047  12.240   6.343   4.220
  234ETHO    C149048  12.340   6.394   4.309
  234ETHO   H1149049  12.429   6.332   4.289
  234ETHO   H1349050  12.349   6.503   4.288
  234ETHO    C249051  12.295   6.392   4.458
  234ETHO   H2149052  12.380   6.426   4.522
  234ETHO   H2349053  12.260   6.290   4.484
  235ETHO    O149054  12.194   6.484   4.483
  235ETHO    C149055  12.172   6.488   4.624
  235ETHO   H1149056  12.160   6.383   4.656
  235ETHO   H1349057  12.268   6.523   4.667
  235ETHO    C249058  12.057   6.584   4.676
  235ETHO   H2149059  12.016   6.556   4.775
  235ETHO   H2349060  11.970   6.574   4.607
  236ETHO    O149061  12.100   6.719   4.681
  236ETHO    C149062  12.141   6.759   4.552
  236ETHO   H1149063  12.069   6.727   4.475
  236ETHO   H1349064  12.244   6.720   4.539
  236ETHO    C249065  12.143   6.919   4.555
  236ETHO   H2149066  12.043   6.947   4.594
  236ETHO   H2349067  12.136   6.947   4.448
  237ETHO    O149068  12.260   6.979   4.606
  237ETHO    C149069  12.304   6.931   4.730
  237ETHO   H1149070  12.214   6.948   4.792
  237ETHO   H1349071  12.338   6.825   4.732
  237ETHO    C249072  12.427   7.009   4.769
  237ETHO   H2149073  12.433   7.006   4.879
  237ETHO   H2349074  12.406   7.113   4.735
  238ETHO    O149075  12.548   6.958   4.716
  238ETHO    C149076  12.654   7.009   4.798
  238ETHO   H1149077  12.659   6.965   4.900
  238ETHO   H1349078  12.652   7.120   4.793
  238ETHO    C249079  12.782   6.973   4.725
  238ETHO   H2149080  12.776   6.872   4.678
  238ETHO   H2349081  12.854   6.980   4.809
  239ETHO    O149082  12.826   7.078   4.640
  239ETHO    C149083  12.735   7.116   4.533
  239ETHO   H1149084  12.684   7.028   4.490
  239ETHO   H1349085  12.647   7.168   4.578
  239ETHO    C249086  12.804   7.189   4.417
  239ETHO   H2149087  12.878   7.267   4.446
  239ETHO   H2349088  12.872   7.111   4.377
  240ETHO    O149089  12.711   7.242   4.323
  240ETHO    C149090  12.775   7.291   4.203
  240ETHO   H1149091  12.815   7.203   4.148
  240ETHO   H1349092  12.857   7.361   4.229
  240ETHO    C249093  12.682   7.381   4.116
  240ETHO   H2149094  12.744   7.447   4.052
  240ETHO   H2349095  12.639   7.448   4.194
  241ETHO    O149096  12.571   7.313   4.048
  241ETHO    C149097  12.612   7.280   3.917
  241ETHO   H1149098  12.642   7.374   3.867
  241ETHO   H1349099  12.700   7.213   3.922
  241ETHO    C249100  12.505   7.195   3.845
  241ETHO   H2149101  12.474   7.116   3.917
  241ETHO   H2349102  12.544   7.143   3.755
  242ETHO    O149103  12.388   7.268   3.799
  242ETHO    C149104  12.313   7.194   3.710
  242ETHO   H1149105  12.294   7.093   3.751
  242ETHO   H1349106  12.372   7.174   3.617
  242ETHO    C249107  12.176   7.246   3.674
  242ETHO   H2149108  12.165   7.354   3.650
  242ETHO   H2349109  12.111   7.224   3.761
  243ETHO    O149110  12.111   7.173   3.576
  243ETHO    C149111  11.970   7.210   3.564
  243ETHO   H1149112  11.912   7.115   3.561
  243ETHO   H1349113  11.942   7.271   3.653
  243ETHO    C249114  11.936   7.293   3.433
  243ETHO   H2149115  12.009   7.376   3.426
  243ETHO   H2349116  11.832   7.330   3.444
  244ETHO    O149117  11.942   7.206   3.318
  244ETHO    C149118  11.815   7.159   3.278
  244ETHO   H1149119  11.753   7.242   3.238
  244ETHO   H1349120  11.759   7.103   3.355
  244ETHO    C249121  11.840   7.051   3.170
  244ETHO   H2149122  11.946   7.020   3.161
  244ETHO   H2349123  11.787   7.077   3.076
  245ETHO    O149124  11.781   6.928   3.222
  245ETHO    C149125  11.795   6.820   3.125
  245ETHO   H1149126  11.704   6.797   3.065
  245ETHO   H1349127  11.871   6.843   3.048
  245ETHO    C249128  11.835   6.685   3.196
  245ETHO   H2149129  11.835   6.602   3.122
  245ETHO   H2349130  11.766   6.668   3.282
  246ETHO    O149131  11.976   6.699   3.240
  246ETHO    C149132  12.006   6.591   3.324
  246ETHO   H1149133  11.962   6.496   3.288
  246ETHO   H1349134  11.960   6.621   3.420
  246ETHO    C249135  12.157   6.571   3.336
  246ETHO   H2149136  12.182   6.507   3.423
  246ETHO   H2349137  12.208   6.670   3.344
  247ETHO    O149138  12.217   6.520   3.214
  247ETHO    C149139  12.354   6.497   3.234
  247ETHO   H1149140  12.400   6.590   3.273
  247ETHO   H1349141  12.367   6.423   3.315
  247ETHO    C249142  12.417   6.441   3.107
  247ETHO   H2149143  12.402   6.516   3.027
  247ETHO   H2349144  12.526   6.444   3.131
  248ETHO    O149145  12.360   6.323   3.070
  248ETHO    C149146  12.444   6.242   2.988
  248ETHO   H1149147  12.454   6.287   2.887
  248ETHO   H1349148  12.539   6.233   3.044
  248ETHO    C249149  12.382   6.110   2.956
  248ETHO   H2149150  12.432   6.073   2.864
  248ETHO   H2349151  12.273   6.112   2.935
  249ETHO    O149152  12.409   6.023   3.057
  249ETHO    C149153  12.372   5.888   3.029
  249ETHO   H1149154  12.268   5.876   2.993
  249ETHO   H1349155  12.443   5.849   2.953
  249ETHO    C249156  12.400   5.813   3.158
  249ETHO   H2149157  12.352   5.713   3.148
  249ETHO   H2349158  12.351   5.871   3.239
  250ETHO    O149159  12.545   5.809   3.185
  250ETHO    C149160  12.603   5.682   3.143
  250ETHO   H1149161  12.539   5.602   3.184
  250ETHO   H1349162  12.593   5.672   3.032
  250ETHO    C249163  12.748   5.642   3.188
  250ETHO   H2149164  12.766   5.537   3.158
  250ETHO   H2349165  12.747   5.640   3.299
  251ETHO    O149166  12.852   5.730   3.135
  251ETHO    C149167  12.989   5.697   3.165
  251ETHO   H1149168  13.015   5.612   3.098
  251ETHO   H1349169  12.991   5.648   3.265
  251ETHO    C249170  13.076   5.820   3.152
  251ETHO   H2149171  13.050   5.859   3.051
  251ETHO   H2349172  13.184   5.798   3.161
  252ETHO    O149173  13.040   5.912   3.253
  252ETHO    C149174  13.108   6.036   3.247
  252ETHO   H1149175  13.201   6.022   3.189
  252ETHO   H1349176  13.046   6.104   3.184
  252ETHO    C249177  13.147   6.103   3.381
  252ETHO   H2149178  13.244   6.156   3.369
  252ETHO   H2349179  13.177   6.023   3.451
  253ETHO    O149180  13.060   6.195   3.429
  253ETHO    C149181  12.962   6.129   3.502
  253ETHO   H1149182  12.998   6.110   3.605
  253ETHO   H1349183  12.944   6.031   3.452
  253ETHO    C249184  12.841   6.217   3.521
  253ETHO   H2149185  12.882   6.320   3.528
  253ETHO   H2349186  12.792   6.197   3.618
  254ETHO    O149187  12.756   6.195   3.408
  254ETHO    C149188  12.659   6.297   3.401
  254ETHO   H1149189  12.708   6.390   3.365
  254ETHO   H1349190  12.594   6.270   3.315
  254ETHO    C249191  12.576   6.322   3.533
  254ETHO   H2149192  12.563   6.222   3.580
  254ETHO   H2349193  12.479   6.364   3.499
  255ETHO    O149194  12.643   6.418   3.619
  255ETHO    C149195  12.553   6.479   3.716
  255ETHO   H1149196  12.539   6.404   3.797
  255ETHO   H1349197  12.457   6.508   3.668
  255ETHO    C249198  12.622   6.602   3.778
  255ETHO   H2149199  12.720   6.572   3.821
  255ETHO   H2349200  12.559   6.635   3.863
  256ETHO    O149201  12.649   6.705   3.683
  256ETHO    C149202  12.701   6.819   3.744
  256ETHO   H1149203  12.622   6.861   3.810
  256ETHO   H1349204  12.793   6.809   3.805
  256ETHO    C249205  12.724   6.935   3.640
  256ETHO   H2149206  12.624   6.938   3.591
  256ETHO   H2349207  12.794   6.903   3.559
  257ETHO    O149208  12.766   7.059   3.691
  257ETHO    C149209  12.854   7.120   3.607
  257ETHO   H1149210  12.808   7.124   3.506
  257ETHO   H1349211  12.950   7.065   3.605
  257ETHO    C249212  12.898   7.270   3.653
  257ETHO   H2149213  12.811   7.324   3.695
  257ETHO   H2349214  12.942   7.323   3.565
  258ETHO    O149215  13.000   7.259   3.753
  258ETHO    C149216  13.014   7.378   3.836
  258ETHO   H1149217  12.985   7.467   3.776
  258ETHO   H1349218  12.942   7.370   3.921
  258ETHO    C249219  13.156   7.402   3.896
  258ETHO   H2149220  13.205   7.314   3.944
  258ETHO   H2349221  13.141   7.486   3.966
  259ETHO    O149222  13.242   7.448   3.795
  259ETHO    C149223  13.372   7.479   3.843
  259ETHO   H1149224  13.409   7.564   3.782
  259ETHO   H1349225  13.373   7.501   3.951
  259ETHO    C249226  13.474   7.364   3.830
  259ETHO   H2149227  13.575   7.400   3.858
  259ETHO   H2349228  13.487   7.331   3.725
  260ETHO    O149229  13.437   7.255   3.912
  260ETHO    C149230  13.531   7.145   3.886
  260ETHO   H1149231  13.544   7.126   3.777
  260ETHO   H1349232  13.635   7.175   3.910
  260ETHO    C249233  13.486   7.012   3.941
  260ETHO   H2149234  13.418   7.032   4.027
  260ETHO   H2349235  13.577   6.961   3.978
  261ETHO    O149236  13.408   6.920   3.857
  261ETHO    C149237  13.292   6.981   3.800
  261ETHO   H1149238  13.215   7.020   3.869
  261ETHO   H1349239  13.332   7.066   3.741
  261ETHO    C249240  13.215   6.880   3.712
  261ETHO   H2149241  13.284   6.844   3.632
  261ETHO   H2349242  13.133   6.937   3.665
  262ETHO    O149243  13.163   6.763   3.787
  262ETHO    C149244  13.244   6.644   3.760
  262ETHO   H1149245  13.350   6.676   3.770
  262ETHO   H1349246  13.227   6.609   3.656
  262ETHO    C249247  13.229   6.530   3.856
  262ETHO   H2149248  13.295   6.444   3.833
  262ETHO   H2349249  13.127   6.487   3.848
  263ETHO    O149250  13.262   6.562   3.990
  263ETHO    C149251  13.232   6.456   4.075
  263ETHO   H1149252  13.327   6.443   4.133
  263ETHO   H1349253  13.213   6.359   4.024
  263ETHO    C249254  13.121   6.507   4.168
  263ETHO   H2149255  13.128   6.610   4.207
  263ETHO   H2349256  13.131   6.439   4.255
  264ETHO    O149257  12.990   6.489   4.113
  264ETHO    C149258  12.884   6.455   4.210
  264ETHO   H1149259  12.893   6.525   4.296
  264ETHO   H1349260  12.896   6.355   4.256
  264ETHO    C249261  12.741   6.461   4.148
  264ETHO   H2149262  12.740   6.558   4.093
  264ETHO   H2349263  12.665   6.459   4.229
  265ETHO    O149264  12.716   6.360   4.055
  265ETHO    C149265  12.677   6.243   4.118
  265ETHO   H1149266  12.766   6.200   4.168
  265ETHO   H1349267  12.600   6.261   4.196
  265ETHO    C249268  12.609   6.149   4.016
  265ETHO   H2149269  12.534   6.217   3.969
  265ETHO   H2349270  12.560   6.063   4.065
  265ETHO    OZ49271  12.696   6.088   3.923
  265ETHO   HZ149272  12.638   6.017   3.893
    1ETHO    O149273  19.638  10.310  20.353
    1ETHO   HO149274  19.693  10.372  20.305
    1ETHO    C149275  19.706  10.187  20.303
    1ETHO   H1149276  19.626  10.131  20.249
    1ETHO   H1349277  19.740  10.129  20.392
    1ETHO    C249278  19.823  10.222  20.214
    1ETHO   H2149279  19.787  10.273  20.122
    1ETHO   H2349280  19.881  10.132  20.186
    2ETHO    O149281  19.908  10.313  20.289
    2ETHO    C149282  19.996  10.241  20.377
    2ETHO   H1149283  19.947  10.194  20.466
    2ETHO   H1349284  20.044  10.162  20.315
    2ETHO    C249285  20.103  10.337  20.429
    2ETHO   H2149286  20.054  10.424  20.479
    2ETHO   H2349287  20.165  10.372  20.345
    3ETHO    O149288  20.178  10.268  20.521
    3ETHO    C149289  20.299  10.333  20.557
    3ETHO   H1149290  20.299  10.378  20.658
    3ETHO   H1349291  20.317  10.416  20.485
    3ETHO    C249292  20.423  10.237  20.558
    3ETHO   H2149293  20.500  10.309  20.591
    3ETHO   H2349294  20.440  10.185  20.461
    4ETHO    O149295  20.405  10.142  20.663
    4ETHO    C149296  20.512  10.053  20.666
    4ETHO   H1149297  20.527  10.010  20.565
    4ETHO   H1349298  20.601  10.114  20.694
    4ETHO    C249299  20.496   9.950  20.784
    4ETHO   H2149300  20.474   9.993  20.884
    4ETHO   H2349301  20.588   9.890  20.801
    5ETHO    O149302  20.392   9.865  20.749
    5ETHO    C149303  20.362   9.758  20.844
    5ETHO   H1149304  20.455   9.711  20.881
    5ETHO   H1349305  20.311   9.812  20.927
    5ETHO    C249306  20.251   9.653  20.798
    5ETHO   H2149307  20.254   9.579  20.881
    5ETHO   H2349308  20.288   9.610  20.702
    6ETHO    O149309  20.119   9.711  20.802
    6ETHO    C149310  20.013   9.619  20.780
    6ETHO   H1149311  19.960   9.657  20.690
    6ETHO   H1349312  20.050   9.517  20.758
    6ETHO    C249313  19.918   9.600  20.902
    6ETHO   H2149314  19.829   9.541  20.870
    6ETHO   H2349315  19.881   9.697  20.941
    7ETHO    O149316  19.991   9.525  21.004
    7ETHO    C149317  19.911   9.504  21.120
    7ETHO   H1149318  19.988   9.490  21.198
    7ETHO   H1349319  19.842   9.588  21.140
    7ETHO    C249320  19.830   9.375  21.126
    7ETHO   H2149321  19.797   9.346  21.228
    7ETHO   H2349322  19.893   9.294  21.084
    8ETHO    O149323  19.714   9.381  21.046
    8ETHO    C149324  19.661   9.250  21.036
    8ETHO   H1149325  19.647   9.215  21.140
    8ETHO   H1349326  19.734   9.182  20.987
    8ETHO    C249327  19.526   9.254  20.968
    8ETHO   H2149328  19.481   9.355  20.975
    8ETHO   H2349329  19.456   9.185  21.019
    9ETHO    O149330  19.524   9.222  20.827
    9ETHO    C149331  19.586   9.325  20.748
    9ETHO   H1149332  19.531   9.421  20.752
    9ETHO   H1349333  19.693   9.333  20.778
    9ETHO    C249334  19.579   9.297  20.590
    9ETHO   H2149335  19.604   9.393  20.541
    9ETHO   H2349336  19.474   9.270  20.566
   10ETHO    O149337  19.665   9.189  20.547
   10ETHO    C149338  19.645   9.153  20.413
   10ETHO   H1149339  19.539   9.179  20.393
   10ETHO   H1349340  19.664   9.044  20.400
   10ETHO    C249341  19.726   9.229  20.315
   10ETHO   H2149342  19.740   9.337  20.333
   10ETHO   H2349343  19.682   9.197  20.218
   11ETHO    O149344  19.853   9.164  20.322
   11ETHO    C149345  19.952   9.198  20.219
   11ETHO   H1149346  19.980   9.305  20.220
   11ETHO   H1349347  20.034   9.131  20.254
   11ETHO    C249348  19.908   9.131  20.090
   11ETHO   H2149349  19.995   9.098  20.029
   11ETHO   H2349350  19.859   9.035  20.118
   12ETHO    O149351  19.835   9.210  19.990
   12ETHO    C149352  19.822   9.134  19.875
   12ETHO   H1149353  19.765   9.044  19.907
   12ETHO   H1349354  19.921   9.096  19.842
   12ETHO    C249355  19.770   9.214  19.752
   12ETHO   H2149356  19.776   9.148  19.663
   12ETHO   H2349357  19.832   9.305  19.735
   13ETHO    O149358  19.635   9.249  19.760
   13ETHO    C149359  19.579   9.332  19.656
   13ETHO   H1149360  19.633   9.305  19.562
   13ETHO   H1349361  19.471   9.312  19.640
   13ETHO    C249362  19.603   9.482  19.690
   13ETHO   H2149363  19.587   9.539  19.596
   13ETHO   H2349364  19.711   9.480  19.713
   14ETHO    O149365  19.532   9.534  19.800
   14ETHO    C149366  19.619   9.602  19.888
   14ETHO   H1149367  19.679   9.677  19.832
   14ETHO   H1349368  19.689   9.530  19.936
   14ETHO    C249369  19.534   9.678  19.988
   14ETHO   H2149370  19.605   9.695  20.072
   14ETHO   H2349371  19.450   9.615  20.023
   15ETHO    O149372  19.495   9.798  19.932
   15ETHO    C149373  19.422   9.883  20.023
   15ETHO   H1149374  19.405   9.831  20.120
   15ETHO   H1349375  19.460   9.987  20.033
   15ETHO    C249376  19.275   9.900  19.980
   15ETHO   H2149377  19.228  10.000  19.993
   15ETHO   H2349378  19.273   9.879  19.871
   16ETHO    O149379  19.193   9.804  20.045
   16ETHO    C149380  19.059   9.857  20.053
   16ETHO   H1149381  19.043   9.938  20.128
   16ETHO   H1349382  19.029   9.902  19.956
   16ETHO    C249383  18.950   9.758  20.080
   16ETHO   H2149384  18.845   9.792  20.085
   16ETHO   H2349385  18.963   9.719  20.183
   17ETHO    O149386  18.972   9.643  19.999
   17ETHO    C149387  18.863   9.558  20.020
   17ETHO   H1149388  18.851   9.528  20.126
   17ETHO   H1349389  18.770   9.610  19.991
   17ETHO    C249390  18.865   9.428  19.935
   17ETHO   H2149391  18.934   9.349  19.969
   17ETHO   H2349392  18.886   9.452  19.828
   18ETHO    O149393  18.730   9.377  19.946
   18ETHO    C149394  18.717   9.245  19.890
   18ETHO   H1149395  18.761   9.227  19.789
   18ETHO   H1349396  18.760   9.172  19.961
   18ETHO    C249397  18.566   9.215  19.860
   18ETHO   H2149398  18.563   9.117  19.809
   18ETHO   H2349399  18.516   9.282  19.787
   19ETHO    O149400  18.500   9.208  19.982
   19ETHO    C149401  18.364   9.196  19.956
   19ETHO   H1149402  18.349   9.110  19.887
   19ETHO   H1349403  18.328   9.279  19.892
   19ETHO    C249404  18.264   9.165  20.073
   19ETHO   H2149405  18.287   9.066  20.117
   19ETHO   H2349406  18.167   9.180  20.020
   20ETHO    O149407  18.278   9.265  20.176
   20ETHO    C149408  18.169   9.256  20.271
   20ETHO   H1149409  18.165   9.345  20.337
   20ETHO   H1349410  18.068   9.240  20.227
   20ETHO    C249411  18.201   9.145  20.380
   20ETHO   H2149412  18.271   9.073  20.334
   20ETHO   H2349413  18.107   9.087  20.393
   21ETHO    O149414  18.253   9.194  20.502
   21ETHO    C149415  18.390   9.224  20.485
   21ETHO   H1149416  18.408   9.303  20.409
   21ETHO   H1349417  18.443   9.130  20.457
   21ETHO    C249418  18.452   9.276  20.612
   21ETHO   H2149419  18.372   9.321  20.675
   21ETHO   H2349420  18.514   9.366  20.593
   22ETHO    O149421  18.510   9.164  20.676
   22ETHO    C149422  18.636   9.201  20.726
   22ETHO   H1149423  18.678   9.266  20.646
   22ETHO   H1349424  18.619   9.270  20.812
   22ETHO    C249425  18.738   9.092  20.764
   22ETHO   H2149426  18.822   9.153  20.802
   22ETHO   H2349427  18.714   9.023  20.848
   23ETHO    O149428  18.764   9.012  20.645
   23ETHO    C149429  18.846   8.906  20.680
   23ETHO   H1149430  18.799   8.848  20.762
   23ETHO   H1349431  18.942   8.944  20.720
   23ETHO    C249432  18.888   8.815  20.559
   23ETHO   H2149433  18.799   8.787  20.499
   23ETHO   H2349434  18.936   8.726  20.605
   24ETHO    O149435  18.989   8.868  20.479
   24ETHO    C149436  19.016   8.790  20.363
   24ETHO   H1149437  19.127   8.792  20.356
   24ETHO   H1349438  18.988   8.682  20.366
   24ETHO    C249439  18.961   8.865  20.250
   24ETHO   H2149440  19.013   8.833  20.157
   24ETHO   H2349441  18.975   8.974  20.268
   25ETHO    O149442  18.822   8.842  20.224
   25ETHO    C149443  18.767   8.889  20.099
   25ETHO   H1149444  18.806   8.821  20.020
   25ETHO   H1349445  18.792   8.996  20.083
   25ETHO    C249446  18.610   8.888  20.095
   25ETHO   H2149447  18.569   8.955  20.016
   25ETHO   H2349448  18.580   8.935  20.191
   26ETHO    O149449  18.555   8.763  20.088
   26ETHO    C149450  18.412   8.761  20.087
   26ETHO   H1149451  18.365   8.852  20.046
   26ETHO   H1349452  18.385   8.668  20.032
   26ETHO    C249453  18.380   8.744  20.237
   26ETHO   H2149454  18.440   8.815  20.299
   26ETHO   H2349455  18.428   8.652  20.278
   27ETHO    O149456  18.244   8.752  20.278
   27ETHO    C149457  18.228   8.684  20.405
   27ETHO   H1149458  18.319   8.701  20.467
   27ETHO   H1349459  18.217   8.576  20.382
   27ETHO    C249460  18.099   8.718  20.472
   27ETHO   H2149461  18.092   8.828  20.484
   27ETHO   H2349462  18.102   8.665  20.569
   28ETHO    O149463  17.987   8.677  20.399
   28ETHO    C149464  17.868   8.727  20.461
   28ETHO   H1149465  17.846   8.703  20.567
   28ETHO   H1349466  17.869   8.837  20.451
   28ETHO    C249467  17.758   8.673  20.379
   28ETHO   H2149468  17.660   8.702  20.423
   28ETHO   H2349469  17.766   8.563  20.365
   29ETHO    O149470  17.768   8.736  20.248
   29ETHO    C149471  17.671   8.673  20.165
   29ETHO   H1149472  17.566   8.670  20.201
   29ETHO   H1349473  17.695   8.564  20.169
   29ETHO    C249474  17.690   8.717  20.023
   29ETHO   H2149475  17.650   8.652  19.942
   29ETHO   H2349476  17.800   8.726  20.007
   30ETHO    O149477  17.631   8.846  20.003
   30ETHO    C149478  17.630   8.898  19.875
   30ETHO   H1149479  17.732   8.934  19.853
   30ETHO   H1349480  17.581   8.824  19.808
   30ETHO    C249481  17.546   9.025  19.869
   30ETHO   H2149482  17.439   8.993  19.867
   30ETHO   H2349483  17.573   9.070  19.771
   31ETHO    O149484  17.568   9.119  19.972
   31ETHO    C149485  17.476   9.225  19.966
   31ETHO   H1149486  17.429   9.246  19.868
   31ETHO   H1349487  17.387   9.190  20.022
   31ETHO    C249488  17.530   9.335  20.051
   31ETHO   H2149489  17.575   9.306  20.148
   31ETHO   H2349490  17.445   9.401  20.078
   32ETHO    O149491  17.616   9.415  19.967
   32ETHO    C149492  17.660   9.533  20.034
   32ETHO   H1149493  17.576   9.604  20.022
   32ETHO   H1349494  17.679   9.517  20.142
   32ETHO    C249495  17.781   9.600  19.972
   32ETHO   H2149496  17.780   9.709  19.996
   32ETHO   H2349497  17.762   9.607  19.863
   33ETHO    O149498  17.900   9.537  19.999
   33ETHO    C149499  17.993   9.602  20.092
   33ETHO   H1149500  18.082   9.539  20.072
   33ETHO   H1349501  18.002   9.707  20.059
   33ETHO    C249502  17.945   9.598  20.241
   33ETHO   H2149503  18.030   9.643  20.297
   33ETHO   H2349504  17.931   9.495  20.281
   34ETHO    O149505  17.829   9.678  20.268
   34ETHO    C149506  17.809   9.697  20.405
   34ETHO   H1149507  17.880   9.773  20.443
   34ETHO   H1349508  17.834   9.602  20.456
   34ETHO    C249509  17.663   9.742  20.432
   34ETHO   H2149510  17.657   9.734  20.543
   34ETHO   H2349511  17.595   9.667  20.387
   35ETHO    O149512  17.637   9.875  20.396
   35ETHO    C149513  17.504   9.897  20.436
   35ETHO   H1149514  17.448   9.831  20.367
   35ETHO   H1349515  17.492   9.876  20.545
   35ETHO    C249516  17.452  10.041  20.396
   35ETHO   H2149517  17.351  10.046  20.443
   35ETHO   H2349518  17.450  10.051  20.286
   36ETHO    O149519  17.539  10.144  20.432
   36ETHO    C149520  17.466  10.261  20.452
   36ETHO   H1149521  17.373  10.253  20.513
   36ETHO   H1349522  17.424  10.273  20.350
   36ETHO    C249523  17.544  10.382  20.486
   36ETHO   H2149524  17.605  10.375  20.579
   36ETHO   H2349525  17.468  10.461  20.503
   37ETHO    O149526  17.627  10.419  20.370
   37ETHO    C149527  17.687  10.540  20.397
   37ETHO   H1149528  17.611  10.615  20.427
   37ETHO   H1349529  17.755  10.514  20.480
   37ETHO    C249530  17.770  10.608  20.289
   37ETHO   H2149531  17.780  10.718  20.303
   37ETHO   H2349532  17.723  10.602  20.188
   38ETHO    O149533  17.896  10.540  20.273
   38ETHO    C149534  17.997  10.587  20.360
   38ETHO   H1149535  17.965  10.582  20.466
   38ETHO   H1349536  18.017  10.693  20.333
   38ETHO    C249537  18.123  10.505  20.350
   38ETHO   H2149538  18.212  10.554  20.397
   38ETHO   H2349539  18.151  10.479  20.246
   39ETHO    O149540  18.103  10.379  20.413
   39ETHO    C149541  18.135  10.378  20.555
   39ETHO   H1149542  18.243  10.357  20.567
   39ETHO   H1349543  18.125  10.476  20.606
   39ETHO    C249544  18.046  10.271  20.615
   39ETHO   H2149545  17.942  10.283  20.578
   39ETHO   H2349546  18.043  10.285  20.725
   40ETHO    O149547  18.117  10.151  20.589
   40ETHO    C149548  18.049  10.068  20.493
   40ETHO   H1149549  18.016  10.131  20.408
   40ETHO   H1349550  17.955  10.025  20.533
   40ETHO    C249551  18.138   9.953  20.445
   40ETHO   H2149552  18.234  10.000  20.417
   40ETHO   H2349553  18.087   9.898  20.363
   41ETHO    O149554  18.170   9.874  20.550
   41ETHO    C149555  18.266   9.773  20.514
   41ETHO   H1149556  18.236   9.729  20.417
   41ETHO   H1349557  18.368   9.817  20.501
   41ETHO    C249558  18.270   9.663  20.622
   41ETHO   H2149559  18.321   9.575  20.577
   41ETHO   H2349560  18.163   9.645  20.647
   42ETHO    O149561  18.336   9.710  20.745
   42ETHO    C149562  18.308   9.624  20.854
   42ETHO   H1149563  18.212   9.663  20.895
   42ETHO   H1349564  18.296   9.518  20.825
   42ETHO    C249565  18.423   9.632  20.956
   42ETHO   H2149566  18.393   9.594  21.056
   42ETHO   H2349567  18.459   9.738  20.960
   43ETHO    O149568  18.537   9.559  20.921
   43ETHO    C149569  18.646   9.584  21.010
   43ETHO   H1149570  18.672   9.692  21.013
   43ETHO   H1349571  18.627   9.553  21.115
   43ETHO    C249572  18.764   9.506  20.947
   43ETHO   H2149573  18.746   9.397  20.940
   43ETHO   H2349574  18.848   9.522  21.018
   44ETHO    O149575  18.803   9.569  20.826
   44ETHO    C149576  18.912   9.503  20.757
   44ETHO   H1149577  18.882   9.397  20.747
   44ETHO   H1349578  18.927   9.538  20.653
   44ETHO    C249579  19.051   9.530  20.826
   44ETHO   H2149580  19.120   9.457  20.776
   44ETHO   H2349581  19.033   9.501  20.932
   45ETHO    O149582  19.090   9.666  20.818
   45ETHO    C149583  19.210   9.683  20.899
   45ETHO   H1149584  19.282   9.611  20.854
   45ETHO   H1349585  19.186   9.657  21.004
   45ETHO    C249586  19.254   9.826  20.886
   45ETHO   H2149587  19.282   9.846  20.781
   45ETHO   H2349588  19.335   9.832  20.963
   46ETHO    O149589  19.153   9.914  20.933
   46ETHO    C149590  19.202  10.051  20.959
   46ETHO   H1149591  19.286  10.056  21.030
   46ETHO   H1349592  19.252  10.090  20.868
   46ETHO    C249593  19.086  10.149  20.995
   46ETHO   H2149594  19.006  10.143  20.918
   46ETHO   H2349595  19.138  10.247  20.999
   47ETHO    O149596  19.038  10.123  21.127
   47ETHO    C149597  18.931  10.202  21.169
   47ETHO   H1149598  18.849  10.206  21.094
   47ETHO   H1349599  18.986  10.299  21.170
   47ETHO    C249600  18.885  10.169  21.309
   47ETHO   H2149601  18.825  10.076  21.298
   47ETHO   H2349602  18.812  10.242  21.351
   48ETHO    O149603  18.988  10.150  21.397
   48ETHO    C149604  18.979  10.023  21.461
   48ETHO   H1149605  18.965   9.943  21.385
   48ETHO   H1349606  19.078  10.004  21.507
   48ETHO    C249607  18.870  10.001  21.566
   48ETHO   H2149608  18.904   9.953  21.661
   48ETHO   H2349609  18.828  10.097  21.603
   49ETHO    O149610  18.767   9.926  21.499
   49ETHO    C149611  18.646   9.922  21.585
   49ETHO   H1149612  18.624  10.021  21.630
   49ETHO   H1349613  18.654   9.848  21.667
   49ETHO    C249614  18.512   9.894  21.500
   49ETHO   H2149615  18.535   9.949  21.406
   49ETHO   H2349616  18.419   9.935  21.545
   50ETHO    O149617  18.492   9.758  21.474
   50ETHO    C149618  18.416   9.726  21.351
   50ETHO   H1149619  18.344   9.808  21.331
   50ETHO   H1349620  18.486   9.718  21.265
   50ETHO    C249621  18.331   9.595  21.346
   50ETHO   H2149622  18.245   9.612  21.278
   50ETHO   H2349623  18.279   9.579  21.443
   51ETHO    O149624  18.410   9.478  21.310
   51ETHO    C149625  18.379   9.365  21.393
   51ETHO   H1149626  18.268   9.358  21.396
   51ETHO   H1349627  18.422   9.370  21.495
   51ETHO    C249628  18.420   9.236  21.318
   51ETHO   H2149629  18.412   9.143  21.378
   51ETHO   H2349630  18.527   9.246  21.292
   52ETHO    O149631  18.340   9.207  21.203
   52ETHO    C149632  18.388   9.090  21.145
   52ETHO   H1149633  18.498   9.076  21.136
   52ETHO   H1349634  18.338   9.005  21.195
   52ETHO    C249635  18.340   9.073  20.999
   52ETHO   H2149636  18.396   8.987  20.955
   52ETHO   H2349637  18.370   9.159  20.936
   53ETHO    O149638  18.200   9.050  20.989
   53ETHO    C149639  18.173   8.994  20.861
   53ETHO   H1149640  18.162   9.071  20.782
   53ETHO   H1349641  18.240   8.908  20.841
   53ETHO    C249642  18.038   8.927  20.858
   53ETHO   H2149643  17.988   8.922  20.759
   53ETHO   H2349644  17.970   8.987  20.922
   54ETHO    O149645  18.053   8.796  20.909
   54ETHO    C149646  17.939   8.711  20.891
   54ETHO   H1149647  17.867   8.737  20.972
   54ETHO   H1349648  17.896   8.741  20.793
   54ETHO    C249649  17.962   8.563  20.902
   54ETHO   H2149650  17.867   8.507  20.911
   54ETHO   H2349651  18.032   8.544  20.986
   55ETHO    O149652  18.028   8.527  20.777
   55ETHO    C149653  18.077   8.396  20.773
   55ETHO   H1149654  18.120   8.363  20.870
   55ETHO   H1349655  17.981   8.340  20.770
   55ETHO    C249656  18.164   8.356  20.655
   55ETHO   H2149657  18.174   8.245  20.652
   55ETHO   H2349658  18.112   8.388  20.563
   56ETHO    O149659  18.295   8.413  20.662
   56ETHO    C149660  18.392   8.365  20.566
   56ETHO   H1149661  18.359   8.388  20.463
   56ETHO   H1349662  18.411   8.258  20.591
   56ETHO    C249663  18.525   8.442  20.571
   56ETHO   H2149664  18.508   8.548  20.602
   56ETHO   H2349665  18.569   8.452  20.469
   57ETHO    O149666  18.621   8.386  20.655
   57ETHO    C149667  18.726   8.484  20.668
   57ETHO   H1149668  18.761   8.516  20.567
   57ETHO   H1349669  18.682   8.572  20.718
   57ETHO    C249670  18.852   8.435  20.740
   57ETHO   H2149671  18.913   8.365  20.679
   57ETHO   H2349672  18.820   8.368  20.823
   58ETHO    O149673  18.931   8.541  20.796
   58ETHO    C149674  19.058   8.553  20.731
   58ETHO   H1149675  19.095   8.656  20.748
   58ETHO   H1349676  19.067   8.500  20.634
   58ETHO    C249677  19.151   8.476  20.825
   58ETHO   H2149678  19.121   8.370  20.834
   58ETHO   H2349679  19.143   8.527  20.923
   59ETHO    O149680  19.293   8.481  20.793
   59ETHO    C149681  19.373   8.417  20.896
   59ETHO   H1149682  19.322   8.342  20.960
   59ETHO   H1349683  19.464   8.363  20.862
   59ETHO    C249684  19.433   8.516  21.002
   59ETHO   H2149685  19.478   8.602  20.949
   59ETHO   H2349686  19.518   8.458  21.045
   60ETHO    O149687  19.333   8.555  21.104
   60ETHO    C149688  19.392   8.652  21.191
   60ETHO   H1149689  19.403   8.739  21.124
   60ETHO   H1349690  19.493   8.619  21.225
   60ETHO    C249691  19.301   8.691  21.314
   60ETHO   H2149692  19.359   8.754  21.385
   60ETHO   H2349693  19.278   8.594  21.363
   61ETHO    O149694  19.184   8.769  21.279
   61ETHO    C149695  19.080   8.754  21.379
   61ETHO   H1149696  18.987   8.805  21.348
   61ETHO   H1349697  19.058   8.647  21.403
   61ETHO    C249698  19.118   8.837  21.502
   61ETHO   H2149699  19.226   8.853  21.522
   61ETHO   H2349700  19.078   8.787  21.593
   62ETHO    O149701  19.059   8.969  21.483
   62ETHO    C149702  19.110   9.064  21.580
   62ETHO   H1149703  19.050   9.156  21.569
   62ETHO   H1349704  19.218   9.076  21.557
   62ETHO    C249705  19.088   9.026  21.728
   62ETHO   H2149706  19.132   9.097  21.800
   62ETHO   H2349707  19.120   8.921  21.746
   63ETHO    O149708  18.952   9.029  21.753
   63ETHO    C149709  18.923   9.016  21.890
   63ETHO   H1149710  18.990   8.932  21.917
   63ETHO   H1349711  18.952   9.107  21.947
   63ETHO    C249712  18.775   8.980  21.918
   63ETHO   H2149713  18.772   8.946  22.024
   63ETHO   H2349714  18.747   8.888  21.861
   64ETHO    O149715  18.690   9.093  21.893
   64ETHO    C149716  18.564   9.058  21.943
   64ETHO   H1149717  18.541   8.956  21.905
   64ETHO   H1349718  18.488   9.120  21.892
   64ETHO    C249719  18.538   9.048  22.093
   64ETHO   H2149720  18.629   9.014  22.146
   64ETHO   H2349721  18.465   8.967  22.116
   65ETHO    O149722  18.496   9.180  22.139
   65ETHO    C149723  18.447   9.184  22.270
   65ETHO   H1149724  18.336   9.187  22.264
   65ETHO   H1349725  18.480   9.099  22.334
   65ETHO    C249726  18.484   9.308  22.357
   65ETHO   H2149727  18.594   9.320  22.354
   65ETHO   H2349728  18.457   9.276  22.460
   66ETHO    O149729  18.413   9.427  22.322
   66ETHO    C149730  18.479   9.544  22.371
   66ETHO   H1149731  18.578   9.565  22.324
   66ETHO   H1349732  18.492   9.529  22.481
   66ETHO    C249733  18.377   9.658  22.352
   66ETHO   H2149734  18.354   9.669  22.244
   66ETHO   H2349735  18.421   9.750  22.396
   67ETHO    O149736  18.255   9.641  22.417
   67ETHO    C149737  18.169   9.757  22.409
   67ETHO   H1149738  18.211   9.850  22.452
   67ETHO   H1349739  18.150   9.784  22.303
   67ETHO    C249740  18.023   9.726  22.465
   67ETHO   H2149741  18.011   9.616  22.453
   67ETHO   H2349742  17.939   9.779  22.415
   68ETHO    O149743  18.023   9.771  22.595
   68ETHO    C149744  17.899   9.743  22.654
   68ETHO   H1149745  17.906   9.821  22.732
   68ETHO   H1349746  17.811   9.751  22.586
   68ETHO    C249747  17.888   9.597  22.720
   68ETHO   H2149748  17.795   9.602  22.781
   68ETHO   H2349749  17.976   9.569  22.781
   69ETHO    O149750  17.857   9.489  22.626
   69ETHO    C149751  17.848   9.367  22.694
   69ETHO   H1149752  17.777   9.375  22.779
   69ETHO   H1349753  17.786   9.301  22.629
   69ETHO    C249754  17.977   9.305  22.738
   69ETHO   H2149755  17.960   9.229  22.817
   69ETHO   H2349756  18.061   9.369  22.773
   70ETHO    O149757  18.031   9.228  22.636
   70ETHO    C149758  18.145   9.162  22.685
   70ETHO   H1149759  18.229   9.227  22.714
   70ETHO   H1349760  18.114   9.091  22.765
   70ETHO    C249761  18.188   9.082  22.563
   70ETHO   H2149762  18.279   9.036  22.609
   70ETHO   H2349763  18.219   9.143  22.476
   71ETHO    O149764  18.095   8.981  22.527
   71ETHO    C149765  18.150   8.900  22.425
   71ETHO   H1149766  18.224   8.830  22.471
   71ETHO   H1349767  18.203   8.956  22.345
   71ETHO    C249768  18.041   8.804  22.363
   71ETHO   H2149769  17.986   8.750  22.443
   71ETHO   H2349770  18.103   8.734  22.303
   72ETHO    O149771  17.953   8.871  22.272
   72ETHO    C149772  17.861   8.778  22.219
   72ETHO   H1149773  17.847   8.694  22.290
   72ETHO   H1349774  17.759   8.819  22.200
   72ETHO    C249775  17.925   8.742  22.087
   72ETHO   H2149776  17.863   8.659  22.049
   72ETHO   H2349777  18.026   8.704  22.115
   73ETHO    O149778  17.931   8.842  21.987
   73ETHO    C149779  18.008   8.794  21.876
   73ETHO   H1149780  17.960   8.704  21.831
   73ETHO   H1349781  18.112   8.761  21.901
   73ETHO    C249782  18.009   8.901  21.767
   73ETHO   H2149783  18.080   8.873  21.686
   73ETHO   H2349784  18.039   9.002  21.803
   74ETHO    O149785  17.886   8.917  21.704
   74ETHO    C149786  17.889   9.032  21.621
   74ETHO   H1149787  17.893   9.116  21.694
   74ETHO   H1349788  17.989   9.043  21.573
   74ETHO    C249789  17.771   9.054  21.533
   74ETHO   H2149790  17.769   9.157  21.493
   74ETHO   H2349791  17.687   9.030  21.601
   75ETHO    O149792  17.782   8.962  21.431
   75ETHO    C149793  17.662   8.930  21.355
   75ETHO   H1149794  17.590   8.883  21.425
   75ETHO   H1349795  17.699   8.852  21.285
   75ETHO    C249796  17.573   9.047  21.288
   75ETHO   H2149797  17.584   9.137  21.352
   75ETHO   H2349798  17.468   9.010  21.285
   76ETHO    O149799  17.621   9.061  21.157
   76ETHO    C149800  17.572   8.968  21.065
   76ETHO   H1149801  17.595   8.864  21.097
   76ETHO   H1349802  17.461   8.966  21.063
   76ETHO    C249803  17.625   8.969  20.923
   76ETHO   H2149804  17.561   8.901  20.862
   76ETHO   H2349805  17.734   8.947  20.919
   77ETHO    O149806  17.602   9.097  20.871
   77ETHO    C149807  17.678   9.121  20.755
   77ETHO   H1149808  17.624   9.069  20.673
   77ETHO   H1349809  17.783   9.089  20.769
   77ETHO    C249810  17.687   9.273  20.724
   77ETHO   H2149811  17.735   9.306  20.630
   77ETHO   H2349812  17.744   9.320  20.806
   78ETHO    O149813  17.561   9.342  20.725
   78ETHO    C149814  17.578   9.484  20.731
   78ETHO   H1149815  17.629   9.508  20.827
   78ETHO   H1349816  17.648   9.514  20.650
   78ETHO    C249817  17.446   9.560  20.731
   78ETHO   H2149818  17.467   9.655  20.784
   78ETHO   H2349819  17.379   9.507  20.802
   79ETHO    O149820  17.393   9.564  20.601
   79ETHO    C149821  17.279   9.647  20.587
   79ETHO   H1149822  17.206   9.630  20.670
   79ETHO   H1349823  17.317   9.751  20.589
   79ETHO    C249824  17.220   9.616  20.449
   79ETHO   H2149825  17.128   9.676  20.439
   79ETHO   H2349826  17.194   9.508  20.454
   80ETHO    O149827  17.318   9.630  20.346
   80ETHO    C149828  17.258   9.639  20.220
   80ETHO   H1149829  17.325   9.600  20.141
   80ETHO   H1349830  17.167   9.575  20.222
   80ETHO    C249831  17.218   9.785  20.196
   80ETHO   H2149832  17.303   9.854  20.175
   80ETHO   H2349833  17.173   9.829  20.288
   81ETHO    O149834  17.131   9.792  20.086
   81ETHO    C149835  17.064   9.922  20.071
   81ETHO   H1149836  16.967   9.916  20.018
   81ETHO   H1349837  17.045   9.963  20.173
   81ETHO    C249838  17.157  10.015  19.995
   81ETHO   H2149839  17.111  10.114  19.974
   81ETHO   H2349840  17.248  10.020  20.059
   82ETHO    O149841  17.185   9.961  19.869
   82ETHO    C149842  17.232  10.059  19.773
   82ETHO   H1149843  17.316  10.114  19.819
   82ETHO   H1349844  17.154  10.132  19.744
   82ETHO    C249845  17.290  10.003  19.639
   82ETHO   H2149846  17.208   9.982  19.567
   82ETHO   H2349847  17.353   9.915  19.667
   83ETHO    O149848  17.378  10.100  19.580
   83ETHO    C149849  17.449  10.044  19.473
   83ETHO   H1149850  17.507   9.953  19.499
   83ETHO   H1349851  17.375  10.015  19.395
   83ETHO    C249852  17.536  10.144  19.412
   83ETHO   H2149853  17.608  10.091  19.346
   83ETHO   H2349854  17.608  10.194  19.480
   84ETHO    O149855  17.457  10.237  19.330
   84ETHO    C149856  17.540  10.289  19.222
   84ETHO   H1149857  17.578  10.206  19.160
   84ETHO   H1349858  17.609  10.356  19.278
   84ETHO    C249859  17.451  10.365  19.114
   84ETHO   H2149860  17.522  10.418  19.047
   84ETHO   H2349861  17.376  10.437  19.155
   85ETHO    O149862  17.391  10.289  19.013
   85ETHO    C149863  17.281  10.216  19.066
   85ETHO   H1149864  17.318  10.144  19.141
   85ETHO   H1349865  17.202  10.284  19.105
   85ETHO    C249866  17.213  10.140  18.952
   85ETHO   H2149867  17.161  10.054  18.999
   85ETHO   H2349868  17.284  10.109  18.872
   86ETHO    O149869  17.125  10.225  18.878
   86ETHO    C149870  17.186  10.281  18.766
   86ETHO   H1149871  17.185  10.210  18.680
   86ETHO   H1349872  17.285  10.331  18.778
   86ETHO    C249873  17.101  10.400  18.710
   86ETHO   H2149874  17.163  10.438  18.626
   86ETHO   H2349875  17.086  10.484  18.781
   87ETHO    O149876  16.973  10.365  18.672
   87ETHO    C149877  16.899  10.477  18.624
   87ETHO   H1149878  16.856  10.530  18.712
   87ETHO   H1349879  16.963  10.552  18.573
   87ETHO    C249880  16.780  10.450  18.528
   87ETHO   H2149881  16.714  10.539  18.523
   87ETHO   H2349882  16.724  10.367  18.576
   88ETHO    O149883  16.821  10.415  18.407
   88ETHO    C149884  16.711  10.346  18.345
   88ETHO   H1149885  16.624  10.413  18.328
   88ETHO   H1349886  16.668  10.267  18.411
   88ETHO    C249887  16.749  10.289  18.209
   88ETHO   H2149888  16.683  10.203  18.185
   88ETHO   H2349889  16.850  10.244  18.222
   89ETHO    O149890  16.759  10.382  18.103
   89ETHO    C149891  16.798  10.320  17.982
   89ETHO   H1149892  16.904  10.289  17.992
   89ETHO   H1349893  16.723  10.240  17.966
   89ETHO    C249894  16.781  10.417  17.860
   89ETHO   H2149895  16.823  10.518  17.876
   89ETHO   H2349896  16.673  10.439  17.851
   90ETHO    O149897  16.833  10.366  17.739
   90ETHO    C149898  16.817  10.455  17.634
   90ETHO   H1149899  16.717  10.505  17.635
   90ETHO   H1349900  16.901  10.523  17.661
   90ETHO    C249901  16.841  10.390  17.504
   90ETHO   H2149902  16.947  10.357  17.504
   90ETHO   H2349903  16.834  10.464  17.422
   91ETHO    O149904  16.753  10.279  17.471
   91ETHO    C149905  16.798  10.199  17.366
   91ETHO   H1149906  16.833  10.254  17.277
   91ETHO   H1349907  16.890  10.157  17.412
   91ETHO    C249908  16.698  10.086  17.322
   91ETHO   H2149909  16.681  10.018  17.408
   91ETHO   H2349910  16.736  10.023  17.239
   92ETHO    O149911  16.563  10.136  17.299
   92ETHO    C149912  16.552  10.181  17.162
   92ETHO   H1149913  16.611  10.274  17.148
   92ETHO   H1349914  16.605  10.109  17.097
   92ETHO    C249915  16.411  10.195  17.101
   92ETHO   H2149916  16.354  10.110  17.144
   92ETHO   H2349917  16.419  10.181  16.991
   93ETHO    O149918  16.344  10.322  17.142
   93ETHO    C149919  16.213  10.331  17.092
   93ETHO   H1149920  16.156  10.237  17.112
   93ETHO   H1349921  16.221  10.341  16.982
   93ETHO    C249922  16.126  10.449  17.137
   93ETHO   H2149923  16.174  10.549  17.133
   93ETHO   H2349924  16.094  10.436  17.243
   94ETHO    O149925  16.003  10.441  17.059
   94ETHO    C149926  15.915  10.554  17.086
   94ETHO   H1149927  15.889  10.568  17.193
   94ETHO   H1349928  15.965  10.651  17.067
   94ETHO    C249929  15.787  10.534  16.995
   94ETHO   H2149930  15.739  10.438  17.021
   94ETHO   H2349931  15.819  10.531  16.889
   95ETHO    O149932  15.679  10.630  17.013
   95ETHO    C149933  15.560  10.590  16.946
   95ETHO   H1149934  15.503  10.509  16.996
   95ETHO   H1349935  15.584  10.546  16.847
   95ETHO    C249936  15.464  10.714  16.928
   95ETHO   H2149937  15.526  10.789  16.873
   95ETHO   H2349938  15.440  10.742  17.032
   96ETHO    O149939  15.345  10.681  16.863
   96ETHO    C149940  15.304  10.788  16.779
   96ETHO   H1149941  15.261  10.879  16.825
   96ETHO   H1349942  15.388  10.814  16.710
   96ETHO    C249943  15.193  10.726  16.688
   96ETHO   H2149944  15.095  10.732  16.740
   96ETHO   H2349945  15.215  10.620  16.662
   97ETHO    O149946  15.167  10.799  16.568
   97ETHO    C149947  15.075  10.742  16.475
   97ETHO   H1149948  14.981  10.715  16.528
   97ETHO   H1349949  15.109  10.647  16.428
   97ETHO    C249950  15.048  10.839  16.356
   97ETHO   H2149951  15.141  10.848  16.296
   97ETHO   H2349952  15.037  10.945  16.385
   98ETHO    O149953  14.931  10.807  16.277
   98ETHO    C149954  14.914  10.911  16.183
   98ETHO   H1149955  14.871  11.002  16.229
   98ETHO   H1349956  15.004  10.927  16.120
   98ETHO    C249957  14.808  10.869  16.071
   98ETHO   H2149958  14.785  10.959  16.010
   98ETHO   H2349959  14.711  10.849  16.122
   99ETHO    O149960  14.849  10.755  15.998
   99ETHO    C149961  14.829  10.632  16.062
   99ETHO   H1149962  14.720  10.609  16.054
   99ETHO   H1349963  14.867  10.634  16.167
   99ETHO    C249964  14.906  10.522  15.989
   99ETHO   H2149965  14.879  10.436  16.055
   99ETHO   H2349966  15.014  10.550  15.986
  100ETHO    O149967  14.854  10.475  15.865
  100ETHO    C149968  14.899  10.550  15.754
  100ETHO   H1149969  14.916  10.656  15.782
  100ETHO   H1349970  14.998  10.518  15.714
  100ETHO    C249971  14.772  10.534  15.666
  100ETHO   H2149972  14.734  10.430  15.653
  100ETHO   H2349973  14.801  10.557  15.561
  101PROX    O149974  14.669  10.626  15.684
  101PROX    C149975  14.568  10.581  15.771
  101PROX   H1149976  14.502  10.505  15.724
  101PROX   H1349977  14.611  10.544  15.867
  101PROX    C249978  14.488  10.699  15.814
  101PROX   H2149979  14.553  10.787  15.830
  101PROX    C349980  14.422  10.677  15.951
  101PROX   H3149981  14.349  10.758  15.974
  101PROX   H3249982  14.375  10.576  15.954
  101PROX   H3349983  14.496  10.685  16.033
  102PROX    O149984  14.400  10.727  15.708
  102PROX    C149985  14.359  10.863  15.704
  102PROX   H1149986  14.312  10.887  15.802
  102PROX   H1349987  14.452  10.923  15.696
  102PROX    C249988  14.264  10.885  15.578
  102PROX   H2149989  14.222  10.988  15.586
  102PROX    C349990  14.134  10.806  15.576
  102PROX   H3149991  14.085  10.824  15.673
  102PROX   H3249992  14.075  10.857  15.497
  102PROX   H3349993  14.157  10.698  15.565
  103PROX    O149994  14.334  10.889  15.456
  103PROX    C149995  14.390  10.761  15.419
  103PROX   H1149996  14.477  10.726  15.479
  103PROX   H1349997  14.312  10.684  15.436
  103PROX    C249998  14.434  10.764  15.270
  103PROX   H2149999  14.522  10.831  15.253
  103PROX    C350000  14.316  10.807  15.169
  103PROX   H3150001  14.355  10.812  15.065
  103PROX   H3250002  14.237  10.730  15.178
  103PROX   H3350003  14.281  10.907  15.203
  104PROX    O150004  14.473  10.635  15.227
  104PROX    C150005  14.590  10.587  15.293
  104PROX   H1150006  14.672  10.662  15.287
  104PROX   H1350007  14.573  10.559  15.399
  104PROX    C250008  14.670  10.475  15.215
  104PROX   H2150009  14.592  10.397  15.206
  104PROX    C350010  14.783  10.417  15.296
  104PROX   H3150011  14.828  10.330  15.243
  104PROX   H3250012  14.856  10.500  15.304
  104PROX   H3350013  14.740  10.383  15.392
  105PROX    O150014  14.720  10.527  15.098
  105PROX    C150015  14.726  10.433  14.990
  105PROX   H1150016  14.790  10.461  14.903
  105PROX   H1350017  14.778  10.340  15.022
  105PROX    C250018  14.585  10.410  14.931
  105PROX   H2150019  14.512  10.415  15.014
  105PROX    C350020  14.565  10.268  14.874
  105PROX   H3150021  14.620  10.245  14.781
  105PROX   H3250022  14.606  10.189  14.939
  105PROX   H3350023  14.456  10.247  14.865
  106PROX    O150024  14.558  10.507  14.829
  106PROX    C150025  14.512  10.634  14.881
  106PROX   H1150026  14.410  10.630  14.926
  106PROX   H1350027  14.571  10.658  14.972
  106PROX    C250028  14.516  10.755  14.790
  106PROX   H2150029  14.473  10.719  14.694
  106PROX    C350030  14.655  10.794  14.773
  106PROX   H3150031  14.705  10.813  14.871
  106PROX   H3250032  14.721  10.732  14.709
  106PROX   H3350033  14.651  10.886  14.711
  107PROX    O150034  14.448  10.858  14.857
  107PROX    C150035  14.379  10.932  14.754
  107PROX   H1150036  14.447  10.965  14.672
  107PROX   H1350037  14.303  10.868  14.705
  107PROX    C250038  14.311  11.061  14.815
  107PROX   H2150039  14.277  11.031  14.916
  107PROX    C350040  14.196  11.108  14.726
  107PROX   H3150041  14.152  11.202  14.766
  107PROX   H3250042  14.246  11.136  14.630
  107PROX   H3350043  14.125  11.024  14.716
  108PROX    O150044  14.399  11.177  14.811
  108PROX    C150045  14.452  11.208  14.943
  108PROX   H1150046  14.449  11.319  14.949
  108PROX   H1350047  14.389  11.175  15.027
  108PROX    C250048  14.587  11.146  14.971
  108PROX   H2150049  14.597  11.056  14.907
  108PROX    C350050  14.605  11.118  15.121
  108PROX   H3150051  14.711  11.103  15.149
  108PROX   H3250052  14.560  11.199  15.182
  108PROX   H3350053  14.559  11.020  15.147
  109PROX    O150054  14.695  11.238  14.933
  109PROX    C150055  14.696  11.296  14.802
  109PROX   H1150056  14.606  11.358  14.784
  109PROX   H1350057  14.782  11.366  14.805
  109PROX    C250058  14.716  11.187  14.698
  109PROX   H2150059  14.624  11.124  14.697
  109PROX    C350060  14.837  11.093  14.731
  109PROX   H3150061  14.823  11.014  14.807
  109PROX   H3250062  14.858  11.027  14.644
  109PROX   H3350063  14.928  11.152  14.755
  110PROX    O150064  14.737  11.239  14.565
  110PROX    C150065  14.648  11.353  14.538
  110PROX   H1150066  14.547  11.324  14.574
  110PROX   H1350067  14.681  11.444  14.593
  110PROX    C250068  14.650  11.396  14.388
  110PROX   H2150069  14.614  11.315  14.321
  110PROX    C350070  14.798  11.429  14.343
  110PROX   H3150071  14.804  11.441  14.232
  110PROX   H3250072  14.837  11.521  14.391
  110PROX   H3350073  14.867  11.345  14.368
  111PROX    O150074  14.565  11.502  14.375
  111PROX    C150075  14.452  11.474  14.298
  111PROX   H1150076  14.415  11.574  14.266
  111PROX   H1350077  14.477  11.415  14.208
  111PROX    C250078  14.347  11.402  14.382
  111PROX   H2150079  14.389  11.310  14.428
  111PROX    C350080  14.226  11.375  14.291
  111PROX   H3150081  14.151  11.335  14.362
  111PROX   H3250082  14.185  11.471  14.251
  111PROX   H3350083  14.250  11.323  14.196
  112PROX    O150084  14.300  11.491  14.487
  112PROX    C150085  14.238  11.425  14.598
  112PROX   H1150086  14.142  11.379  14.570
  112PROX   H1350087  14.310  11.354  14.645
  112PROX    C250088  14.210  11.525  14.712
  112PROX   H2150089  14.154  11.613  14.675
  112PROX    C350090  14.338  11.585  14.774
  112PROX   H3150091  14.393  11.654  14.705
  112PROX   H3250092  14.316  11.625  14.875
  112PROX   H3350093  14.409  11.501  14.791
  113PROX    O150094  14.130  11.461  14.813
  113PROX    C150095  14.045  11.553  14.890
  113PROX   H1150096  14.102  11.631  14.944
  113PROX   H1350097  13.987  11.612  14.816
  113PROX    C250098  13.952  11.481  14.993
  113PROX   H2150099  13.882  11.542  15.053
  113PROX    C350100  14.026  11.396  15.096
  113PROX   H3150101  13.961  11.344  15.170
  113PROX   H3250102  14.069  11.309  15.041
  113PROX   H3350103  14.094  11.455  15.161
  114PROX    O150104  13.874  11.382  14.922
  114PROX    C150105  13.758  11.443  14.860
  114PROX   H1150106  13.694  11.503  14.928
  114PROX   H1350107  13.795  11.503  14.774
  114PROX    C250108  13.666  11.330  14.796
  114PROX   H2150109  13.732  11.272  14.727
  114PROX    C350110  13.546  11.385  14.706
  114PROX   H3150111  13.471  11.445  14.763
  114PROX   H3250112  13.586  11.445  14.622
  114PROX   H3350113  13.494  11.302  14.655
  115PROX    O150114  13.605  11.241  14.892
  115PROX    C150115  13.699  11.166  14.974
  115PROX   H1150116  13.788  11.135  14.914
  115PROX   H1350117  13.743  11.227  15.056
  115PROX    C250118  13.642  11.038  15.035
  115PROX   H2150119  13.597  10.973  14.957
  115PROX    C350120  13.531  11.079  15.136
  115PROX   H3150121  13.452  11.130  15.078
  115PROX   H3250122  13.483  10.988  15.179
  115PROX   H3350123  13.575  11.144  15.214
  116PROX    O150124  13.746  10.969  15.108
  116PROX    C150125  13.818  10.885  15.010
  116PROX   H1150126  13.757  10.792  15.019
  116PROX   H1350127  13.823  10.917  14.903
  116PROX    C250128  13.966  10.880  15.064
  116PROX   H2150129  13.967  10.826  15.161
  116PROX    C350130  14.026  11.018  15.074
  116PROX   H3150131  14.117  11.016  15.139
  116PROX   H3250132  14.065  11.052  14.976
  116PROX   H3350133  13.970  11.106  15.113
  117PROX    O150134  14.049  10.823  14.961
  117PROX    C150135  14.019  10.684  14.957
  117PROX   H1150136  14.049  10.642  15.056
  117PROX   H1350137  13.914  10.672  14.921
  117PROX    C250138  14.118  10.628  14.850
  117PROX   H2150139  14.223  10.642  14.886
  117PROX    C350140  14.104  10.691  14.712
  117PROX   H3150141  14.189  10.655  14.649
  117PROX   H3250142  14.006  10.661  14.669
  117PROX   H3350143  14.103  10.802  14.719
  118PROX    O150144  14.083  10.491  14.838
  118PROX    C150145  14.184  10.424  14.766
  118PROX   H1150146  14.279  10.482  14.768
  118PROX   H1350147  14.203  10.323  14.808
  118PROX    C250148  14.140  10.389  14.619
  118PROX   H2150149  14.086  10.477  14.579
  118PROX    C350150  14.052  10.272  14.628
  118PROX   H3150151  14.014  10.240  14.529
  118PROX   H3250152  14.095  10.180  14.674
  118PROX   H3350153  13.957  10.288  14.684
  119PROX    O150154  14.255  10.358  14.540
  119PROX    C150155  14.328  10.475  14.498
  119PROX   H1150156  14.268  10.562  14.463
  119PROX   H1350157  14.373  10.504  14.595
  119PROX    C250158  14.439  10.436  14.396
  119PROX   H2150159  14.379  10.415  14.304
  119PROX    C350160  14.508  10.293  14.416
  119PROX   H3150161  14.424  10.220  14.409
  119PROX   H3250162  14.591  10.278  14.344
  119PROX   H3350163  14.555  10.269  14.514
  120PROX    O150164  14.526  10.540  14.369
  120PROX    C150165  14.619  10.569  14.474
  120PROX   H1150166  14.557  10.593  14.563
  120PROX   H1350167  14.674  10.472  14.482
  120PROX    C250168  14.715  10.681  14.426
  120PROX   H2150169  14.717  10.672  14.316
  120PROX    C350170  14.861  10.657  14.472
  120PROX   H3150171  14.924  10.740  14.433
  120PROX   H3250172  14.878  10.657  14.582
  120PROX   H3350173  14.901  10.566  14.422
  121PROX    O150174  14.658  10.808  14.463
  121PROX    C150175  14.693  10.910  14.366
  121PROX   H1150176  14.677  11.008  14.416
  121PROX   H1350177  14.802  10.899  14.349
  121PROX    C250178  14.613  10.926  14.231
  121PROX   H2150179  14.605  10.825  14.186
  121PROX    C350180  14.671  11.030  14.140
  121PROX   H3150181  14.770  10.990  14.109
  121PROX   H3250182  14.603  11.044  14.053
  121PROX   H3350183  14.689  11.127  14.191
  122PROX    O150184  14.479  10.961  14.255
  122PROX    C150185  14.397  10.854  14.296
  122PROX   H1150186  14.412  10.765  14.230
  122PROX   H1350187  14.406  10.840  14.406
  122PROX    C250188  14.253  10.893  14.271
  122PROX   H2150189  14.243  10.904  14.161
  122PROX    C350190  14.220  11.028  14.340
  122PROX   H3150191  14.112  11.053  14.336
  122PROX   H3250192  14.255  11.023  14.445
  122PROX   H3350193  14.264  11.114  14.286
  123PROX    O150194  14.175  10.780  14.313
  123PROX    C150195  14.035  10.777  14.279
  123PROX   H1150196  13.974  10.844  14.343
  123PROX   H1350197  14.014  10.809  14.174
  123PROX    C250198  13.989  10.627  14.287
  123PROX   H2150199  14.021  10.588  14.386
  123PROX    C350200  14.045  10.543  14.172
  123PROX   H3150201  13.989  10.556  14.076
  123PROX   H3250202  14.153  10.565  14.158
  123PROX   H3350203  14.039  10.438  14.206
  124PROX    O150204  13.846  10.606  14.271
  124PROX    C150205  13.774  10.611  14.392
  124PROX   H1150206  13.836  10.643  14.478
  124PROX   H1350207  13.695  10.689  14.382
  124PROX    C250208  13.713  10.477  14.432
  124PROX   H2150209  13.796  10.404  14.448
  124PROX    C350210  13.615  10.433  14.332
  124PROX   H3150211  13.667  10.400  14.239
  124PROX   H3250212  13.556  10.347  14.371
  124PROX   H3350213  13.544  10.516  14.314
  125PROX    O150214  13.637  10.508  14.551
  125PROX    C150215  13.712  10.488  14.668
  125PROX   H1150216  13.748  10.383  14.676
  125PROX   H1350217  13.805  10.547  14.677
  125PROX    C250218  13.627  10.529  14.793
  125PROX   H2150219  13.533  10.472  14.782
  125PROX    C350220  13.603  10.679  14.791
  125PROX   H3150221  13.572  10.694  14.685
  125PROX   H3250222  13.517  10.729  14.839
  125PROX   H3350223  13.698  10.732  14.813
  126PROX    O150224  13.695  10.497  14.916
  126PROX    C150225  13.693  10.363  14.953
  126PROX   H1150226  13.589  10.326  14.943
  126PROX   H1350227  13.750  10.301  14.880
  126PROX    C250228  13.755  10.345  15.093
  126PROX   H2150229  13.857  10.386  15.082
  126PROX    C350230  13.771  10.197  15.125
  126PROX   H3150231  13.852  10.158  15.060
  126PROX   H3250232  13.799  10.193  15.233
  126PROX   H3350233  13.678  10.137  15.119
  127PROX    O150234  13.675  10.405  15.192
  127PROX    C150235  13.715  10.538  15.216
  127PROX   H1150236  13.823  10.542  15.243
  127PROX   H1350237  13.726  10.594  15.120
  127PROX    C250238  13.622  10.613  15.317
  127PROX   H2150239  13.659  10.718  15.316
  127PROX    C350240  13.643  10.556  15.459
  127PROX   H3150241  13.734  10.595  15.508
  127PROX   H3250242  13.567  10.602  15.526
  127PROX   H3350243  13.654  10.446  15.468
  128PROX    O150244  13.492  10.605  15.268
  128PROX    C150245  13.469  10.704  15.172
  128PROX   H1150246  13.485  10.799  15.227
  128PROX   H1350247  13.538  10.704  15.085
  128PROX    C250248  13.329  10.695  15.103
  128PROX   H2150249  13.255  10.710  15.184
  128PROX    C350250  13.318  10.561  15.033
  128PROX   H3150251  13.231  10.505  15.074
  128PROX   H3250252  13.325  10.562  14.923
  128PROX   H3350253  13.409  10.499  15.050
  129PROX    O150254  13.321  10.812  15.015
  129PROX    C150255  13.227  10.809  14.909
  129PROX   H1150256  13.276  10.766  14.818
  129PROX   H1350257  13.143  10.740  14.933
  129PROX    C250258  13.181  10.950  14.888
  129PROX   H2150259  13.207  11.008  14.979
  129PROX    C350260  13.028  10.949  14.899
  129PROX   H3150261  12.997  10.904  14.996
  129PROX   H3250262  12.984  11.050  14.882
  129PROX   H3350263  12.990  10.894  14.810
  130PROX    O150264  13.234  11.010  14.769
  130PROX    C150265  13.376  11.009  14.759
  130PROX   H1150266  13.416  11.107  14.794
  130PROX   H1350267  13.421  10.922  14.812
  130PROX    C250268  13.429  11.005  14.610
  130PROX   H2150269  13.397  11.103  14.567
  130PROX    C350270  13.381  10.887  14.533
  130PROX   H3150271  13.274  10.891  14.503
  130PROX   H3250272  13.430  10.872  14.434
  130PROX   H3350273  13.398  10.794  14.593
  131PROX    O150274  13.568  11.006  14.616
  131PROX    C150275  13.629  11.073  14.508
  131PROX   H1150276  13.565  11.074  14.417
  131PROX   H1350277  13.637  11.179  14.540
  131PROX    C250278  13.761  11.012  14.483
  131PROX   H2150279  13.744  10.906  14.453
  131PROX    C350280  13.850  10.995  14.609
  131PROX   H3150281  13.802  10.910  14.663
  131PROX   H3250282  13.953  10.964  14.585
  131PROX   H3350283  13.839  11.087  14.671
  132PROX    O150284  13.820  11.076  14.370
  132PROX    C150285  13.878  11.197  14.404
  132PROX   H1150286  13.839  11.240  14.499
  132PROX   H1350287  13.987  11.187  14.424
  132PROX    C250288  13.858  11.297  14.290
  132PROX   H2150289  13.750  11.319  14.277
  132PROX    C350290  13.919  11.233  14.159
  132PROX   H3150291  14.029  11.222  14.167
  132PROX   H3250292  13.897  11.124  14.167
  132PROX   H3350293  13.900  11.277  14.059
  133PROX    O150294  13.932  11.414  14.318
  133PROX    C150295  13.887  11.483  14.436
  133PROX   H1150296  13.781  11.451  14.448
  133PROX   H1350297  13.950  11.450  14.521
  133PROX    C250298  13.887  11.634  14.428
  133PROX   H2150299  13.830  11.662  14.336
  133PROX    C350300  14.029  11.694  14.411
  133PROX   H3150301  14.097  11.653  14.490
  133PROX   H3250302  14.076  11.666  14.315
  133PROX   H3350303  14.033  11.804  14.422
  134PROX    O150304  13.810  11.674  14.541
  134PROX    C150305  13.751  11.805  14.541
  134PROX   H1150306  13.805  11.873  14.472
  134PROX   H1350307  13.643  11.793  14.518
  134PROX    C250308  13.786  11.873  14.672
  134PROX   H2150309  13.750  11.978  14.663
  134PROX    C350310  13.939  11.877  14.693
  134PROX   H3150311  13.976  11.937  14.779
  134PROX   H3250312  13.981  11.776  14.712
  134PROX   H3350313  13.987  11.913  14.600
  135PROX    O150314  13.727  11.813  14.786
  135PROX    C150315  13.585  11.836  14.790
  135PROX   H1150316  13.570  11.944  14.767
  135PROX   H1350317  13.537  11.768  14.717
  135PROX    C250318  13.547  11.801  14.931
  135PROX   H2150319  13.580  11.695  14.943
  135PROX    C350320  13.392  11.815  14.952
  135PROX   H3150321  13.334  11.736  14.899
  135PROX   H3250322  13.370  11.807  15.060
  135PROX   H3350323  13.374  11.915  14.907
  136PROX    O150324  13.604  11.890  15.028
  136PROX    C150325  13.719  11.837  15.102
  136PROX   H1150326  13.791  11.793  15.030
  136PROX   H1350327  13.772  11.929  15.135
  136PROX    C250328  13.691  11.749  15.229
  136PROX   H2150329  13.619  11.806  15.291
  136PROX    C350330  13.813  11.722  15.315
  136PROX   H3150331  13.848  11.816  15.362
  136PROX   H3250332  13.781  11.648  15.391
  136PROX   H3350333  13.883  11.674  15.242
  137PROX    O150334  13.639  11.623  15.183
  137PROX    C150335  13.524  11.579  15.254
  137PROX   H1150336  13.549  11.591  15.361
  137PROX   H1350337  13.429  11.632  15.231
  137PROX    C250338  13.496  11.434  15.216
  137PROX   H2150339  13.586  11.369  15.226
  137PROX    C350340  13.432  11.426  15.080
  137PROX   H3150341  13.341  11.489  15.078
  137PROX   H3250342  13.501  11.460  15.000
  137PROX   H3350343  13.414  11.320  15.051
  138PROX    O150344  13.390  11.394  15.299
  138PROX    C150345  13.432  11.338  15.424
  138PROX   H1150346  13.500  11.251  15.414
  138PROX   H1350347  13.474  11.424  15.480
  138PROX    C250348  13.293  11.296  15.486
  138PROX   H2150349  13.256  11.216  15.419
  138PROX    C350350  13.191  11.413  15.501
  138PROX   H3150351  13.087  11.385  15.526
  138PROX   H3250352  13.224  11.478  15.584
  138PROX   H3350353  13.193  11.485  15.415
  139PROX    O150354  13.325  11.229  15.611
  139PROX    C150355  13.207  11.186  15.682
  139PROX   H1150356  13.173  11.276  15.738
  139PROX   H1350357  13.131  11.152  15.608
  139PROX    C250358  13.231  11.067  15.775
  139PROX   H2150359  13.135  11.025  15.811
  139PROX    C350360  13.331  11.102  15.886
  139PROX   H3150361  13.297  11.189  15.945
  139PROX   H3250362  13.329  11.023  15.964
  139PROX   H3350363  13.438  11.110  15.856
  140PROX    O150364  13.301  10.977  15.692
  140PROX    C150365  13.287  10.847  15.742
  140PROX   H1150366  13.295  10.843  15.853
  140PROX   H1350367  13.180  10.824  15.724
  140PROX    C250368  13.378  10.744  15.674
  140PROX   H2150369  13.359  10.765  15.567
  140PROX    C350370  13.343  10.600  15.710
  140PROX   H3150371  13.237  10.582  15.683
  140PROX   H3250372  13.406  10.527  15.655
  140PROX   H3350373  13.352  10.597  15.820
  141PROX    O150374  13.517  10.759  15.704
  141PROX    C150375  13.560  10.881  15.644
  141PROX   H1150376  13.511  10.906  15.548
  141PROX   H1350377  13.548  10.965  15.715
  141PROX    C250378  13.708  10.874  15.631
  141PROX   H2150379  13.743  10.790  15.567
  141PROX    C350380  13.773  10.851  15.768
  141PROX   H3150381  13.736  10.904  15.859
  141PROX   H3250382  13.763  10.741  15.785
  141PROX   H3350383  13.881  10.875  15.759
  142PROX    O150384  13.759  10.998  15.590
  142PROX    C150385  13.716  11.034  15.462
  142PROX   H1150386  13.725  10.943  15.398
  142PROX   H1350387  13.614  11.077  15.454
  142PROX    C250388  13.813  11.152  15.412
  142PROX   H2150389  13.798  11.150  15.302
  142PROX    C350390  13.967  11.135  15.424
  142PROX   H3150391  14.018  11.231  15.400
  142PROX   H3250392  13.995  11.111  15.529
  142PROX   H3350393  13.994  11.055  15.352
  143PROX    O150394  13.769  11.282  15.450
  143PROX    C150395  13.746  11.291  15.591
  143PROX   H1150396  13.637  11.281  15.611
  143PROX   H1350397  13.813  11.223  15.647
  143PROX    C250398  13.772  11.443  15.630
  143PROX   H2150399  13.700  11.503  15.570
  143PROX    C350400  13.919  11.477  15.608
  143PROX   H3150401  13.930  11.519  15.506
  143PROX   H3250402  13.947  11.563  15.672
  143PROX   H3350403  13.990  11.392  15.618
  144PROX    O150404  13.751  11.452  15.764
  144PROX    C150405  13.616  11.494  15.791
  144PROX   H1150406  13.607  11.605  15.802
  144PROX   H1350407  13.550  11.472  15.705
  144PROX    C250408  13.564  11.422  15.914
  144PROX   H2150409  13.567  11.313  15.891
  144PROX    C350410  13.427  11.467  15.956
  144PROX   H3150411  13.420  11.577  15.952
  144PROX   H3250412  13.348  11.433  15.887
  144PROX   H3350413  13.407  11.430  16.059
  145PROX    O150414  13.645  11.449  16.029
  145PROX    C150415  13.756  11.364  16.051
  145PROX   H1150416  13.715  11.264  16.078
  145PROX   H1350417  13.807  11.360  15.952
  145PROX    C250418  13.857  11.418  16.156
  145PROX   H2150419  13.941  11.347  16.150
  145PROX    C350420  13.789  11.406  16.298
  145PROX   H3150421  13.692  11.459  16.282
  145PROX   H3250422  13.762  11.302  16.325
  145PROX   H3350423  13.848  11.450  16.382
  146PROX    O150424  13.898  11.554  16.127
  146PROX    C150425  13.996  11.563  16.018
  146PROX   H1150426  14.091  11.511  16.040
  146PROX   H1350427  13.938  11.507  15.942
  146PROX    C250428  14.022  11.697  15.957
  146PROX   H2150429  14.061  11.761  16.039
  146PROX    C350430  13.898  11.767  15.903
  146PROX   H3150431  13.922  11.864  15.856
  146PROX   H3250432  13.834  11.703  15.838
  146PROX   H3350433  13.827  11.791  15.986
  147PROX    O150434  14.119  11.678  15.858
  147PROX    C150435  14.174  11.801  15.820
  147PROX   H1150436  14.114  11.842  15.736
  147PROX   H1350437  14.175  11.869  15.908
  147PROX    C250438  14.313  11.780  15.769
  147PROX   H2150439  14.310  11.696  15.696
  147PROX    C350440  14.422  11.714  15.864
  147PROX   H3150441  14.430  11.789  15.946
  147PROX   H3250442  14.377  11.618  15.901
  147PROX   H3350443  14.519  11.699  15.813
  148PROX    O150444  14.357  11.901  15.709
  148PROX    C150445  14.460  11.872  15.613
  148PROX   H1150446  14.550  11.825  15.659
  148PROX   H1350447  14.428  11.797  15.537
  148PROX    C250448  14.509  11.995  15.524
  148PROX   H2150449  14.564  12.066  15.589
  148PROX    C350450  14.391  12.068  15.455
  148PROX   H3150451  14.330  12.142  15.511
  148PROX   H3250452  14.418  12.141  15.375
  148PROX   H3350453  14.323  11.999  15.402
  149PROX    O150454  14.592  11.933  15.429
  149PROX    C150455  14.700  12.020  15.386
  149PROX   H1150456  14.665  12.107  15.326
  149PROX   H1350457  14.757  12.049  15.477
  149PROX    C250458  14.806  11.942  15.295
  149PROX   H2150459  14.869  11.878  15.360
  149PROX    C350460  14.889  12.046  15.211
  149PROX   H3150461  14.940  12.111  15.285
  149PROX   H3250462  14.964  11.999  15.144
  149PROX   H3350463  14.822  12.106  15.145
  150PROX    O150464  14.735  11.859  15.205
  150PROX    C150465  14.826  11.777  15.133
  150PROX   H1150466  14.826  11.816  15.029
  150PROX   H1350467  14.932  11.785  15.165
  150PROX    C250468  14.793  11.625  15.133
  150PROX   H2150469  14.843  11.577  15.047
  150PROX    C350470  14.636  11.614  15.121
  150PROX   H3150471  14.590  11.650  15.215
  150PROX   H3250472  14.592  11.659  15.029
  150PROX   H3350473  14.602  11.508  15.116
  151PROX    O150474  14.837  11.562  15.258
  151PROX    C150475  14.860  11.421  15.230
  151PROX   H1150476  14.812  11.387  15.136
  151PROX   H1350477  14.969  11.403  15.219
  151PROX    C250478  14.807  11.344  15.354
  151PROX   H2150479  14.698  11.366  15.362
  151PROX    C350480  14.875  11.399  15.480
  151PROX   H3150481  14.853  11.341  15.572
  151PROX   H3250482  14.983  11.391  15.457
  151PROX   H3350483  14.859  11.504  15.512
  152PROX    O150484  14.841  11.206  15.328
  152PROX    C150485  14.781  11.117  15.420
  152PROX   H1150486  14.818  11.136  15.523
  152PROX   H1350487  14.671  11.131  15.423
  152PROX    C250488  14.805  10.965  15.388
  152PROX   H2150489  14.742  10.943  15.299
  152PROX    C350490  14.766  10.872  15.506
  152PROX   H3150491  14.831  10.895  15.593
  152PROX   H3250492  14.665  10.906  15.538
  152PROX   H3350493  14.787  10.764  15.488
  153PROX    O150494  14.951  10.941  15.378
  153PROX    C150495  14.987  10.853  15.273
  153PROX   H1150496  15.086  10.804  15.280
  153PROX   H1350497  14.911  10.772  15.279
  153PROX    C250498  14.988  10.918  15.129
  153PROX   H2150499  14.896  10.979  15.122
  153PROX    C350500  14.974  10.808  15.019
  153PROX   H3150501  15.075  10.764  15.004
  153PROX   H3250502  14.897  10.731  15.042
  153PROX   H3350503  14.951  10.849  14.918
  154PROX    O150504  15.101  11.009  15.112
  154PROX    C150505  15.073  11.108  15.017
  154PROX   H1150506  15.056  11.051  14.923
  154PROX   H1350507  14.981  11.162  15.048
  154PROX    C250508  15.188  11.219  15.018
  154PROX   H2150509  15.279  11.164  14.988
  154PROX    C350510  15.218  11.287  15.157
  154PROX   H3150511  15.315  11.336  15.135
  154PROX   H3250512  15.151  11.373  15.177
  154PROX   H3350513  15.220  11.212  15.239
  155PROX    O150514  15.148  11.319  14.928
  155PROX    C150515  15.210  11.299  14.804
  155PROX   H1150516  15.310  11.348  14.814
  155PROX   H1350517  15.222  11.191  14.784
  155PROX    C250518  15.131  11.363  14.693
  155PROX   H2150519  15.024  11.335  14.694
  155PROX    C350520  15.182  11.297  14.559
  155PROX   H3150521  15.290  11.322  14.552
  155PROX   H3250522  15.174  11.186  14.559
  155PROX   H3350523  15.123  11.345  14.479
  156PROX    O150524  15.146  11.509  14.691
  156PROX    C150525  15.051  11.571  14.777
  156PROX   H1150526  14.947  11.543  14.747
  156PROX   H1350527  15.055  11.547  14.886
  156PROX    C250528  15.068  11.726  14.767
  156PROX   H2150529  15.114  11.761  14.673
  156PROX    C350530  15.141  11.798  14.882
  156PROX   H3150531  15.079  11.764  14.967
  156PROX   H3250532  15.251  11.784  14.874
  156PROX   H3350533  15.140  11.909  14.872
  157PROX    O150534  14.939  11.781  14.777
  157PROX    C150535  14.857  11.781  14.657
  157PROX   H1150536  14.873  11.876  14.601
  157PROX   H1350537  14.878  11.688  14.600
  157PROX    C250538  14.709  11.790  14.694
  157PROX   H2150539  14.683  11.700  14.753
  157PROX    C350540  14.614  11.770  14.565
  157PROX   H3150541  14.643  11.850  14.494
  157PROX   H3250542  14.624  11.672  14.514
  157PROX   H3350543  14.506  11.780  14.588
  158PROX    O150544  14.674  11.913  14.753
  158PROX    C150545  14.565  11.896  14.843
  158PROX   H1150546  14.497  11.830  14.786
  158PROX   H1350547  14.594  11.852  14.941
  158PROX    C250548  14.494  12.040  14.860
  158PROX   H2150549  14.492  12.095  14.763
  158PROX    C350550  14.553  12.142  14.958
  158PROX   H3150551  14.598  12.107  15.053
  158PROX   H3250552  14.644  12.186  14.910
  158PROX   H3350553  14.475  12.217  14.982
  159PROX    O150554  14.354  12.021  14.892
  159PROX    C150555  14.337  11.953  15.016
  159PROX   H1150556  14.393  11.857  15.019
  159PROX   H1350557  14.381  12.019  15.094
  159PROX    C250558  14.187  11.939  15.052
  159PROX   H2150559  14.131  11.864  14.992
  159PROX    C350560  14.101  12.073  15.043
  159PROX   H3150561  14.144  12.148  15.113
  159PROX   H3250562  14.117  12.120  14.943
  159PROX   H3350563  13.993  12.057  15.060
  160PROX    O150564  14.171  11.892  15.180
  160PROX    C150565  14.241  11.774  15.210
  160PROX   H1150566  14.252  11.709  15.120
  160PROX   H1350567  14.339  11.800  15.255
  160PROX    C250568  14.179  11.695  15.334
  160PROX   H2150569  14.085  11.650  15.296
  160PROX    C350570  14.133  11.780  15.450
  160PROX   H3150571  14.061  11.727  15.517
  160PROX   H3250572  14.220  11.816  15.508
  160PROX   H3350573  14.082  11.873  15.417
  161PROX    O150574  14.273  11.604  15.382
  161PROX    C150575  14.227  11.501  15.461
  161PROX   H1150576  14.207  11.534  15.565
  161PROX   H1350577  14.138  11.443  15.427
  161PROX    C250578  14.346  11.401  15.473
  161PROX   H2150579  14.434  11.468  15.474
  161PROX    C350580  14.363  11.314  15.346
  161PROX   H3150581  14.430  11.227  15.354
  161PROX   H3250582  14.261  11.274  15.328
  161PROX   H3350583  14.386  11.380  15.259
  162PROX    O150584  14.335  11.331  15.595
  162PROX    C150585  14.459  11.275  15.639
  162PROX   H1150586  14.478  11.179  15.588
  162PROX   H1350587  14.538  11.349  15.611
  162PROX    C250588  14.460  11.246  15.794
  162PROX   H2150589  14.429  11.342  15.839
  162PROX    C350590  14.590  11.183  15.844
  162PROX   H3150591  14.629  11.101  15.780
  162PROX   H3250592  14.672  11.257  15.853
  162PROX   H3350593  14.570  11.133  15.941
  163PROX    O150594  14.350  11.164  15.818
  163PROX    C150595  14.272  11.196  15.936
  163PROX   H1150596  14.341  11.169  16.019
  163PROX   H1350597  14.250  11.305  15.940
  163PROX    C250598  14.135  11.118  15.927
  163PROX   H2150599  14.148  11.010  15.906
  163PROX    C350600  14.052  11.178  15.811
  163PROX   H3150601  13.992  11.267  15.837
  163PROX   H3250602  14.109  11.212  15.722
  163PROX   H3350603  13.976  11.099  15.787
  164PROX    O150604  14.065  11.130  16.052
  164PROX    C150605  13.969  11.033  16.068
  164PROX   H1150606  13.893  11.078  16.136
  164PROX   H1350607  13.923  11.004  15.971
  164PROX    C250608  14.023  10.904  16.136
  164PROX   H2150609  14.108  10.875  16.070
  164PROX    C350610  13.922  10.794  16.148
  164PROX   H3150611  13.954  10.728  16.230
  164PROX   H3250612  13.821  10.836  16.169
  164PROX   H3350613  13.921  10.732  16.056
  165PROX    O150614  14.064  10.946  16.272
  165PROX    C150615  14.202  10.958  16.282
  165PROX   H1150616  14.251  10.858  16.281
  165PROX   H1350617  14.248  11.017  16.199
  165PROX    C250618  14.229  11.023  16.422
  165PROX   H2150619  14.169  10.963  16.494
  165PROX    C350620  14.188  11.168  16.435
  165PROX   H3150621  14.212  11.213  16.534
  165PROX   H3250622  14.233  11.228  16.353
  165PROX   H3350623  14.080  11.174  16.410
  166ETHO    O150624  14.366  11.022  16.456
  166ETHO    C150625  14.404  10.887  16.497
  166ETHO   H1150626  14.504  10.869  16.452
  166ETHO   H1350627  14.337  10.804  16.466
  166ETHO    C250628  14.432  10.885  16.649
  166ETHO   H2150629  14.340  10.915  16.702
  166ETHO   H2350630  14.506  10.966  16.669
  167ETHO    O150631  14.469  10.760  16.704
  167ETHO    C150632  14.608  10.755  16.730
  167ETHO   H1150633  14.613  10.657  16.782
  167ETHO   H1350634  14.671  10.749  16.639
  167ETHO    C250635  14.666  10.850  16.838
  167ETHO   H2150636  14.725  10.795  16.915
  167ETHO   H2350637  14.578  10.887  16.895
  168ETHO    O150638  14.740  10.965  16.797
  168ETHO    C150639  14.868  10.931  16.746
  168ETHO   H1150640  14.855  10.905  16.639
  168ETHO   H1350641  14.911  10.851  16.811
  168ETHO    C250642  14.966  11.050  16.715
  168ETHO   H2150643  14.927  11.153  16.706
  168ETHO   H2350644  15.032  11.032  16.627
  169ETHO    O150645  15.048  11.060  16.824
  169ETHO    C150646  15.128  11.174  16.823
  169ETHO   H1150647  15.186  11.185  16.729
  169ETHO   H1350648  15.061  11.262  16.836
  169ETHO    C250649  15.219  11.167  16.941
  169ETHO   H2150650  15.270  11.266  16.949
  169ETHO   H2350651  15.301  11.093  16.937
  170ETHO    O150652  15.140  11.152  17.064
  170ETHO    C150653  15.212  11.160  17.193
  170ETHO   H1150654  15.145  11.140  17.279
  170ETHO   H1350655  15.255  11.261  17.212
  170ETHO    C250656  15.332  11.059  17.217
  170ETHO   H2150657  15.289  10.959  17.192
  170ETHO   H2350658  15.370  11.052  17.321
  171ETHO    O150659  15.438  11.083  17.130
  171ETHO    C150660  15.552  10.999  17.170
  171ETHO   H1150661  15.587  11.033  17.270
  171ETHO   H1350662  15.520  10.893  17.163
  171ETHO    C250663  15.669  11.017  17.077
  171ETHO   H2150664  15.642  10.978  16.976
  171ETHO   H2350665  15.751  10.956  17.122
  172ETHO    O150666  15.708  11.152  17.055
  172ETHO    C150667  15.834  11.152  16.989
  172ETHO   H1150668  15.843  11.076  16.908
  172ETHO   H1350669  15.922  11.129  17.053
  172ETHO    C250670  15.860  11.286  16.928
  172ETHO   H2150671  15.783  11.294  16.848
  172ETHO   H2350672  15.963  11.283  16.886
  173ETHO    O150673  15.865  11.385  17.025
  173ETHO    C150674  15.943  11.496  16.983
  173ETHO   H1150675  16.048  11.458  16.988
  173ETHO   H1350676  15.917  11.525  16.879
  173ETHO    C250677  15.928  11.621  17.075
  173ETHO   H2150678  16.016  11.681  17.045
  173ETHO   H2350679  15.832  11.672  17.054
  174ETHO    O150680  15.937  11.585  17.211
  174ETHO    C150681  15.982  11.704  17.283
  174ETHO   H1150682  16.087  11.731  17.259
  174ETHO   H1350683  15.931  11.794  17.242
  174ETHO    C250684  15.968  11.701  17.440
  174ETHO   H2150685  15.951  11.594  17.464
  174ETHO   H2350686  15.894  11.774  17.480
  175ETHO    O150687  16.094  11.738  17.491
  175ETHO    C150688  16.111  11.716  17.632
  175ETHO   H1150689  16.030  11.776  17.678
  175ETHO   H1350690  16.092  11.607  17.646
  175ETHO    C250691  16.250  11.759  17.690
  175ETHO   H2150692  16.257  11.736  17.798
  175ETHO   H2350693  16.273  11.868  17.690
  176ETHO    O150694  16.356  11.690  17.629
  176ETHO    C150695  16.478  11.765  17.633
  176ETHO   H1150696  16.474  11.868  17.592
  176ETHO   H1350697  16.504  11.772  17.741
  176ETHO    C250698  16.575  11.678  17.549
  176ETHO   H2150699  16.654  11.748  17.516
  176ETHO   H2350700  16.512  11.646  17.464
  177ETHO    O150701  16.627  11.561  17.617
  177ETHO    C150702  16.642  11.459  17.526
  177ETHO   H1150703  16.683  11.494  17.429
  177ETHO   H1350704  16.540  11.421  17.502
  177ETHO    C250705  16.742  11.354  17.572
  177ETHO   H2150706  16.821  11.397  17.636
  177ETHO   H2350707  16.780  11.297  17.484
  178ETHO    O150708  16.666  11.259  17.648
  178ETHO    C150709  16.723  11.198  17.761
  178ETHO   H1150710  16.754  11.280  17.828
  178ETHO   H1350711  16.632  11.153  17.807
  178ETHO    C250712  16.829  11.095  17.728
  178ETHO   H2150713  16.926  11.137  17.694
  178ETHO   H2350714  16.787  11.033  17.646
  179ETHO    O150715  16.845  11.012  17.836
  179ETHO    C150716  16.808  10.877  17.805
  179ETHO   H1150717  16.886  10.819  17.750
  179ETHO   H1350718  16.715  10.879  17.744
  179ETHO    C250719  16.771  10.811  17.931
  179ETHO   H2150720  16.703  10.725  17.916
  179ETHO   H2350721  16.719  10.882  17.999
  180ETHO    O150722  16.894  10.763  17.990
  180ETHO    C150723  16.872  10.701  18.116
  180ETHO   H1150724  16.813  10.769  18.181
  180ETHO   H1350725  16.815  10.608  18.094
  180ETHO    C250726  16.996  10.673  18.209
  180ETHO   H2150727  17.075  10.620  18.151
  180ETHO   H2350728  16.960  10.610  18.294
  181ETHO    O150729  17.064  10.788  18.266
  181ETHO    C150730  17.007  10.822  18.391
  181ETHO   H1150731  17.040  10.753  18.470
  181ETHO   H1350732  16.896  10.814  18.380
  181ETHO    C250733  17.045  10.962  18.422
  181ETHO   H2150734  17.002  10.995  18.519
  181ETHO   H2350735  16.994  11.035  18.356
  182ETHO    O150736  17.189  10.965  18.416
  182ETHO    C150737  17.254  11.079  18.478
  182ETHO   H1150738  17.177  11.159  18.483
  182ETHO   H1350739  17.274  11.043  18.581
  182ETHO    C250740  17.382  11.123  18.411
  182ETHO   H2150741  17.417  11.204  18.478
  182ETHO   H2350742  17.356  11.161  18.310
  183ETHO    O150743  17.465  11.006  18.400
  183ETHO    C150744  17.594  11.045  18.362
  183ETHO   H1150745  17.617  11.128  18.432
  183ETHO   H1350746  17.582  11.088  18.261
  183ETHO    C250747  17.706  10.941  18.345
  183ETHO   H2150748  17.786  10.970  18.273
  183ETHO   H2350749  17.664  10.855  18.290
  184ETHO    O150750  17.767  10.897  18.463
  184ETHO    C150751  17.692  10.794  18.526
  184ETHO   H1150752  17.686  10.816  18.635
  184ETHO   H1350753  17.587  10.803  18.490
  184ETHO    C250754  17.738  10.645  18.485
  184ETHO   H2150755  17.748  10.647  18.374
  184ETHO   H2350756  17.677  10.559  18.520
  185ETHO    O150757  17.862  10.621  18.550
  185ETHO    C150758  17.925  10.528  18.468
  185ETHO   H1150759  17.862  10.439  18.449
  185ETHO   H1350760  17.953  10.576  18.371
  185ETHO    C250761  18.051  10.480  18.527
  185ETHO   H2150762  18.098  10.396  18.472
  185ETHO   H2350763  18.027  10.454  18.633
  186ETHO    O150764  18.146  10.585  18.531
  186ETHO    C150765  18.223  10.602  18.657
  186ETHO   H1150766  18.255  10.709  18.650
  186ETHO   H1350767  18.161  10.591  18.748
  186ETHO    C250768  18.346  10.501  18.662
  186ETHO   H2150769  18.308  10.408  18.710
  186ETHO   H2350770  18.435  10.539  18.717
  187ETHO    O150771  18.391  10.475  18.530
  187ETHO    C150772  18.487  10.375  18.526
  187ETHO   H1150773  18.522  10.380  18.420
  187ETHO   H1350774  18.574  10.399  18.590
  187ETHO    C250775  18.419  10.237  18.542
  187ETHO   H2150776  18.479  10.165  18.484
  187ETHO   H2350777  18.322  10.253  18.490
  188ETHO    O150778  18.404  10.188  18.675
  188ETHO    C150779  18.356  10.053  18.686
  188ETHO   H1150780  18.388   9.991  18.599
  188ETHO   H1350781  18.245  10.045  18.683
  188ETHO    C250782  18.427   9.983  18.803
  188ETHO   H2150783  18.345   9.915  18.836
  188ETHO   H2350784  18.449  10.047  18.890
  189ETHO    O150785  18.534   9.896  18.764
  189ETHO    C150786  18.645   9.976  18.711
  189ETHO   H1150787  18.621  10.031  18.618
  189ETHO   H1350788  18.682  10.047  18.787
  189ETHO    C250789  18.750   9.873  18.683
  189ETHO   H2150790  18.840   9.913  18.631
  189ETHO   H2350791  18.710   9.791  18.619
  190ETHO    O150792  18.797   9.828  18.809
  190ETHO    C150793  18.903   9.734  18.788
  190ETHO   H1150794  18.992   9.770  18.734
  190ETHO   H1350795  18.869   9.655  18.718
  190ETHO    C250796  18.958   9.668  18.912
  190ETHO   H2150797  19.011   9.738  18.980
  190ETHO   H2350798  19.031   9.587  18.888
  191ETHO    O150799  18.850   9.610  18.978
  191ETHO    C150800  18.890   9.557  19.102
  191ETHO   H1150801  18.998   9.533  19.095
  191ETHO   H1350802  18.881   9.645  19.169
  191ETHO    C250803  18.797   9.440  19.153
  191ETHO   H2150804  18.778   9.368  19.070
  191ETHO   H2350805  18.697   9.483  19.178
  192ETHO    O150806  18.848   9.365  19.261
  192ETHO    C150807  18.891   9.450  19.366
  192ETHO   H1150808  18.804   9.503  19.409
  192ETHO   H1350809  18.970   9.516  19.325
  192ETHO    C250810  18.945   9.371  19.492
  192ETHO   H2150811  18.868   9.296  19.520
  192ETHO   H2350812  18.971   9.438  19.577
  193ETHO    O150813  19.052   9.273  19.462
  193ETHO    C150814  19.127   9.241  19.577
  193ETHO   H1150815  19.186   9.326  19.618
  193ETHO   H1350816  19.056   9.194  19.650
  193ETHO    C250817  19.254   9.154  19.547
  193ETHO   H2150818  19.306   9.163  19.645
  193ETHO   H2350819  19.319   9.204  19.471
  194ETHO    O150820  19.219   9.021  19.519
  194ETHO    C150821  19.326   8.931  19.504
  194ETHO   H1150822  19.358   8.938  19.398
  194ETHO   H1350823  19.277   8.832  19.514
  194ETHO    C250824  19.433   8.933  19.605
  194ETHO   H2150825  19.502   9.019  19.593
  194ETHO   H2350826  19.503   8.849  19.585
  195ETHO    O150827  19.376   8.910  19.732
  195ETHO    C150828  19.469   8.937  19.838
  195ETHO   H1150829  19.559   8.873  19.824
  195ETHO   H1350830  19.497   9.044  19.823
  195ETHO    C250831  19.401   8.916  19.971
  195ETHO   H2150832  19.323   8.996  19.968
  195ETHO   H2350833  19.470   8.940  20.056
  196ETHO    O150834  19.351   8.782  19.984
  196ETHO    C150835  19.445   8.679  20.010
  196ETHO   H1150836  19.513   8.661  19.924
  196ETHO   H1350837  19.505   8.710  20.098
  196ETHO    C250838  19.364   8.560  20.057
  196ETHO   H2150839  19.272   8.603  20.102
  196ETHO   H2350840  19.415   8.493  20.129
  197ETHO    O150841  19.344   8.481  19.937
  197ETHO    C150842  19.256   8.374  19.972
  197ETHO   H1150843  19.301   8.306  20.048
  197ETHO   H1350844  19.158   8.412  20.006
  197ETHO    C250845  19.233   8.285  19.852
  197ETHO   H2150846  19.187   8.189  19.884
  197ETHO   H2350847  19.330   8.272  19.801
  198ETHO    O150848  19.153   8.349  19.751
  198ETHO    C150849  19.096   8.250  19.657
  198ETHO   H1150850  19.166   8.164  19.655
  198ETHO   H1350851  18.999   8.210  19.694
  198ETHO    C250852  19.074   8.324  19.526
  198ETHO   H2150853  19.031   8.263  19.445
  198ETHO   H2350854  19.162   8.368  19.474
  199ETHO    O150855  18.978   8.426  19.535
  199ETHO    C150856  18.963   8.501  19.415
  199ETHO   H1150857  18.920   8.439  19.334
  199ETHO   H1350858  19.064   8.539  19.387
  199ETHO    C250859  18.885   8.633  19.424
  199ETHO   H2150860  18.920   8.712  19.355
  199ETHO   H2350861  18.895   8.672  19.528
  200ETHO    O150862  18.749   8.610  19.410
  200ETHO    C150863  18.712   8.604  19.275
  200ETHO   H1150864  18.698   8.709  19.240
  200ETHO   H1350865  18.789   8.570  19.204
  200ETHO    C250866  18.598   8.509  19.247
  200ETHO   H2150867  18.618   8.406  19.285
  200ETHO   H2350868  18.572   8.518  19.139
  201ETHO    O150869  18.494   8.559  19.322
  201ETHO    C150870  18.377   8.472  19.307
  201ETHO   H1150871  18.411   8.368  19.329
  201ETHO   H1350872  18.352   8.457  19.200
  201ETHO    C250873  18.251   8.511  19.381
  201ETHO   H2150874  18.279   8.531  19.486
  201ETHO   H2350875  18.189   8.419  19.386
  202ETHO    O150876  18.173   8.611  19.329
  202ETHO    C150877  18.236   8.740  19.314
  202ETHO   H1150878  18.316   8.748  19.391
  202ETHO   H1350879  18.284   8.736  19.213
  202ETHO    C250880  18.148   8.861  19.315
  202ETHO   H2150881  18.214   8.949  19.331
  202ETHO   H2350882  18.080   8.843  19.402
  203ETHO    O150883  18.070   8.874  19.199
  203ETHO    C150884  17.975   8.983  19.210
  203ETHO   H1150885  17.933   8.982  19.313
  203ETHO   H1350886  17.892   8.965  19.140
  203ETHO    C250887  18.026   9.130  19.191
  203ETHO   H2150888  18.104   9.156  19.265
  203ETHO   H2350889  17.933   9.192  19.194
  204ETHO    O150890  18.078   9.144  19.062
  204ETHO    C150891  18.104   9.281  19.027
  204ETHO   H1150892  18.021   9.346  19.061
  204ETHO   H1350893  18.192   9.316  19.085
  204ETHO    C250894  18.125   9.298  18.878
  204ETHO   H2150895  18.180   9.208  18.845
  204ETHO   H2350896  18.188   9.386  18.853
  205ETHO    O150897  18.004   9.313  18.809
  205ETHO    C150898  18.012   9.322  18.666
  205ETHO   H1150899  17.912   9.324  18.618
  205ETHO   H1350900  18.064   9.233  18.626
  205ETHO    C250901  18.088   9.446  18.628
  205ETHO   H2150902  18.050   9.536  18.679
  205ETHO   H2350903  18.066   9.455  18.519
  206ETHO    O150904  18.229   9.435  18.635
  206ETHO    C150905  18.310   9.554  18.619
  206ETHO   H1150906  18.344   9.557  18.513
  206ETHO   H1350907  18.251   9.643  18.649
  206ETHO    C250908  18.441   9.548  18.713
  206ETHO   H2150909  18.491   9.646  18.723
  206ETHO   H2350910  18.402   9.513  18.811
  207ETHO    O150911  18.532   9.458  18.656
  207ETHO    C150912  18.632   9.414  18.744
  207ETHO   H1150913  18.667   9.501  18.803
  207ETHO   H1350914  18.721   9.389  18.682
  207ETHO    C250915  18.596   9.298  18.840
  207ETHO   H2150916  18.692   9.257  18.878
  207ETHO   H2350917  18.532   9.221  18.791
  208ETHO    O150918  18.521   9.342  18.952
  208ETHO    C150919  18.461   9.230  19.009
  208ETHO   H1150920  18.442   9.263  19.113
  208ETHO   H1350921  18.363   9.210  18.960
  208ETHO    C250922  18.533   9.099  19.053
  208ETHO   H2150923  18.460   9.053  19.123
  208ETHO   H2350924  18.636   9.109  19.094
  209ETHO    O150925  18.549   9.007  18.947
  209ETHO    C150926  18.556   8.877  19.008
  209ETHO   H1150927  18.458   8.857  19.057
  209ETHO   H1350928  18.637   8.873  19.084
  209ETHO    C250929  18.577   8.767  18.899
  209ETHO   H2150930  18.500   8.775  18.819
  209ETHO   H2350931  18.555   8.670  18.948
  210ETHO    O150932  18.714   8.763  18.858
  210ETHO    C150933  18.725   8.669  18.749
  210ETHO   H1150934  18.694   8.567  18.779
  210ETHO   H1350935  18.659   8.687  18.661
  210ETHO    C250936  18.867   8.662  18.700
  210ETHO   H2150937  18.919   8.759  18.683
  210ETHO   H2350938  18.869   8.627  18.595
  211ETHO    O150939  18.947   8.576  18.780
  211ETHO    C150940  18.985   8.620  18.906
  211ETHO   H1150941  19.031   8.721  18.899
  211ETHO   H1350942  18.889   8.638  18.959
  211ETHO    C250943  19.076   8.516  18.974
  211ETHO   H2150944  19.113   8.555  19.070
  211ETHO   H2350945  19.156   8.480  18.905
  212ETHO    O150946  18.997   8.402  19.005
  212ETHO    C150947  19.082   8.297  19.048
  212ETHO   H1150948  19.157   8.273  18.970
  212ETHO   H1350949  19.140   8.322  19.139
  212ETHO    C250950  19.010   8.164  19.068
  212ETHO   H2150951  19.082   8.080  19.056
  212ETHO   H2350952  18.936   8.146  18.988
  213ETHO    O150953  18.942   8.154  19.192
  213ETHO    C150954  18.942   8.020  19.254
  213ETHO   H1150955  18.921   7.946  19.174
  213ETHO   H1350956  19.042   8.005  19.302
  213ETHO    C250957  18.832   8.015  19.361
  213ETHO   H2150958  18.851   8.107  19.421
  213ETHO   H2350959  18.832   7.926  19.427
  214ETHO    O150960  18.700   8.022  19.311
  214ETHO    C150961  18.609   8.066  19.410
  214ETHO   H1150962  18.602   8.176  19.415
  214ETHO   H1350963  18.637   8.034  19.513
  214ETHO    C250964  18.469   8.021  19.375
  214ETHO   H2150965  18.394   8.030  19.457
  214ETHO   H2350966  18.464   7.911  19.359
  215ETHO    O150967  18.434   8.104  19.259
  215ETHO    C150968  18.302   8.082  19.221
  215ETHO   H1150969  18.277   7.978  19.192
  215ETHO   H1350970  18.241   8.117  19.307
  215ETHO    C250971  18.267   8.165  19.095
  215ETHO   H2150972  18.268   8.273  19.124
  215ETHO   H2350973  18.169   8.124  19.063
  216ETHO    O150974  18.354   8.138  18.979
  216ETHO    C150975  18.294   8.196  18.859
  216ETHO   H1150976  18.208   8.131  18.832
  216ETHO   H1350977  18.382   8.193  18.790
  216ETHO    C250978  18.247   8.345  18.862
  216ETHO   H2150979  18.237   8.381  18.758
  216ETHO   H2350980  18.331   8.400  18.912
  217ETHO    O150981  18.125   8.379  18.925
  217ETHO    C150982  18.098   8.514  18.983
  217ETHO   H1150983  18.112   8.518  19.093
  217ETHO   H1350984  18.169   8.586  18.938
  217ETHO    C250985  17.952   8.549  18.951
  217ETHO   H2150986  17.894   8.469  19.002
  217ETHO   H2350987  17.924   8.529  18.846
  218ETHO    O150988  17.914   8.677  18.995
  218ETHO    C150989  17.780   8.691  19.039
  218ETHO   H1150990  17.776   8.798  19.068
  218ETHO   H1350991  17.759   8.621  19.123
  218ETHO    C250992  17.663   8.664  18.945
  218ETHO   H2150993  17.569   8.641  18.998
  218ETHO   H2350994  17.678   8.573  18.882
  219ETHO    O150995  17.639   8.771  18.855
  219ETHO    C150996  17.754   8.814  18.780
  219ETHO   H1150997  17.823   8.877  18.841
  219ETHO   H1350998  17.821   8.730  18.752
  219ETHO    C250999  17.718   8.913  18.661
  219ETHO   H2151000  17.813   8.964  18.637
  219ETHO   H2351001  17.646   8.989  18.699
  220ETHO    O151002  17.659   8.849  18.548
  220ETHO    C151003  17.643   8.938  18.444
  220ETHO   H1151004  17.725   8.912  18.373
  220ETHO   H1351005  17.647   9.045  18.472
  220ETHO    C251006  17.506   8.903  18.373
  220ETHO   H2151007  17.488   8.796  18.396
  220ETHO   H2351008  17.518   8.913  18.263
  221ETHO    O151009  17.403   8.985  18.428
  221ETHO    C151010  17.283   8.970  18.351
  221ETHO   H1151011  17.272   8.870  18.302
  221ETHO   H1351012  17.199   8.971  18.424
  221ETHO    C251013  17.267   9.081  18.251
  221ETHO   H2151014  17.184   9.066  18.178
  221ETHO   H2351015  17.362   9.100  18.198
  222ETHO    O151016  17.237   9.197  18.335
  222ETHO    C151017  17.237   9.316  18.266
  222ETHO   H1151018  17.334   9.327  18.213
  222ETHO   H1351019  17.149   9.311  18.197
  222ETHO    C251020  17.215   9.444  18.349
  222ETHO   H2151021  17.125   9.437  18.414
  222ETHO   H2351022  17.196   9.532  18.283
  223ETHO    O151023  17.336   9.467  18.418
  223ETHO    C151024  17.351   9.603  18.452
  223ETHO   H1151025  17.333   9.672  18.367
  223ETHO   H1351026  17.284   9.630  18.536
  223ETHO    C251027  17.488   9.642  18.497
  223ETHO   H2151028  17.499   9.753  18.494
  223ETHO   H2351029  17.566   9.593  18.434
  224ETHO    O151030  17.510   9.581  18.629
  224ETHO    C151031  17.640   9.601  18.682
  224ETHO   H1151032  17.712   9.582  18.600
  224ETHO   H1351033  17.663   9.706  18.708
  224ETHO    C251034  17.698   9.507  18.788
  224ETHO   H2151035  17.808   9.512  18.800
  224ETHO   H2351036  17.662   9.403  18.772
  225ETHO    O151037  17.647   9.552  18.918
  225ETHO    C151038  17.678   9.479  19.036
  225ETHO   H1151039  17.658   9.548  19.120
  225ETHO   H1351040  17.786   9.451  19.033
  225ETHO    C251041  17.592   9.357  19.054
  225ETHO   H2151042  17.618   9.277  18.980
  225ETHO   H2351043  17.484   9.374  19.035
  226ETHO    O151044  17.629   9.307  19.182
  226ETHO    C151045  17.533   9.323  19.282
  226ETHO   H1151046  17.522   9.426  19.322
  226ETHO   H1351047  17.440   9.276  19.246
  226ETHO    C251048  17.584   9.234  19.401
  226ETHO   H2151049  17.591   9.133  19.356
  226ETHO   H2351050  17.516   9.223  19.487
  227ETHO    O151051  17.705   9.276  19.449
  227ETHO    C151052  17.780   9.171  19.508
  227ETHO   H1151053  17.835   9.102  19.440
  227ETHO   H1351054  17.710   9.110  19.569
  227ETHO    C251055  17.887   9.245  19.596
  227ETHO   H2151056  17.920   9.183  19.682
  227ETHO   H2351057  17.838   9.337  19.635
  228ETHO    O151058  18.000   9.275  19.516
  228ETHO    C151059  18.107   9.317  19.604
  228ETHO   H1151060  18.068   9.384  19.684
  228ETHO   H1351061  18.146   9.230  19.661
  228ETHO    C251062  18.223   9.367  19.519
  228ETHO   H2151063  18.296   9.425  19.579
  228ETHO   H2351064  18.171   9.432  19.445
  229ETHO    O151065  18.285   9.250  19.471
  229ETHO    C151066  18.392   9.275  19.375
  229ETHO   H1151067  18.417   9.383  19.372
  229ETHO   H1351068  18.351   9.225  19.285
  229ETHO    C251069  18.521   9.200  19.397
  229ETHO   H2151070  18.563   9.241  19.491
  229ETHO   H2351071  18.599   9.222  19.322
  230ETHO    O151072  18.500   9.057  19.410
  230ETHO    C151073  18.612   8.982  19.457
  230ETHO   H1151074  18.693   8.976  19.381
  230ETHO   H1351075  18.663   9.039  19.538
  230ETHO    C251076  18.570   8.840  19.506
  230ETHO   H2151077  18.654   8.780  19.548
  230ETHO   H2351078  18.533   8.787  19.416
  231ETHO    O151079  18.474   8.851  19.612
  231ETHO    C151080  18.448   8.720  19.671
  231ETHO   H1151081  18.512   8.725  19.762
  231ETHO   H1351082  18.483   8.641  19.601
  231ETHO    C251083  18.299   8.714  19.706
  231ETHO   H2151084  18.249   8.757  19.617
  231ETHO   H2351085  18.265   8.774  19.794
  232ETHO    O151086  18.267   8.581  19.726
  232ETHO    C151087  18.130   8.569  19.722
  232ETHO   H1151088  18.084   8.633  19.643
  232ETHO   H1351089  18.110   8.465  19.687
  232ETHO    C251090  18.062   8.584  19.859
  232ETHO   H2151091  17.954   8.595  19.836
  232ETHO   H2351092  18.093   8.680  19.907
  233ETHO    O151093  18.099   8.475  19.939
  233ETHO    C151094  18.063   8.496  20.076
  233ETHO   H1151095  18.114   8.583  20.122
  233ETHO   H1351096  17.956   8.526  20.078
  233ETHO    C251097  18.091   8.366  20.154
  233ETHO   H2151098  18.054   8.276  20.100
  233ETHO   H2351099  18.028   8.386  20.243
  234ETHO    O151100  18.228   8.336  20.189
  234ETHO    C151101  18.328   8.361  20.090
  234ETHO   H1151102  18.307   8.294  20.004
  234ETHO   H1351103  18.335   8.466  20.056
  234ETHO    C251104  18.468   8.307  20.139
  234ETHO   H2151105  18.497   8.364  20.230
  234ETHO   H2351106  18.547   8.304  20.061
  235ETHO    O151107  18.453   8.167  20.163
  235ETHO    C151108  18.574   8.102  20.208
  235ETHO   H1151109  18.643   8.107  20.121
  235ETHO   H1351110  18.613   8.170  20.287
  235ETHO    C251111  18.556   7.958  20.263
  235ETHO   H2151112  18.466   7.946  20.326
  235ETHO   H2351113  18.645   7.914  20.314
  236ETHO    O151114  18.538   7.876  20.152
  236ETHO    C151115  18.657   7.841  20.080
  236ETHO   H1151116  18.738   7.915  20.097
  236ETHO   H1351117  18.627   7.862  19.975
  236ETHO    C251118  18.707   7.696  20.099
  236ETHO   H2151119  18.768   7.678  20.008
  236ETHO   H2351120  18.615   7.635  20.112
  237ETHO    O151121  18.797   7.694  20.214
  237ETHO    C151122  18.842   7.555  20.245
  237ETHO   H1151123  18.756   7.489  20.269
  237ETHO   H1351124  18.881   7.520  20.147
  237ETHO    C251125  18.953   7.529  20.351
  237ETHO   H2151126  19.034   7.598  20.318
  237ETHO   H2351127  18.986   7.423  20.357
  238ETHO    O151128  18.911   7.558  20.480
  238ETHO    C151129  19.028   7.572  20.565
  238ETHO   H1151130  19.069   7.674  20.551
  238ETHO   H1351131  19.101   7.495  20.532
  238ETHO    C251132  19.002   7.556  20.717
  238ETHO   H2151133  19.097   7.550  20.773
  238ETHO   H2351134  18.947   7.462  20.739
  239ETHO    O151135  18.941   7.667  20.783
  239ETHO    C151136  18.796   7.655  20.783
  239ETHO   H1151137  18.754   7.757  20.783
  239ETHO   H1351138  18.766   7.602  20.690
  239ETHO    C251139  18.749   7.570  20.905
  239ETHO   H2151140  18.648   7.528  20.883
  239ETHO   H2351141  18.816   7.482  20.909
  240ETHO    O151142  18.761   7.644  21.033
  240ETHO    C151143  18.697   7.565  21.134
  240ETHO   H1151144  18.713   7.455  21.129
  240ETHO   H1351145  18.587   7.584  21.132
  240ETHO    C251146  18.750   7.606  21.271
  240ETHO   H2151147  18.686   7.576  21.357
  240ETHO   H2351148  18.759   7.717  21.269
  241ETHO    O151149  18.874   7.540  21.299
  241ETHO    C151150  18.990   7.616  21.269
  241ETHO   H1151151  18.967   7.691  21.191
  241ETHO   H1351152  19.027   7.667  21.361
  241ETHO    C251153  19.096   7.525  21.213
  241ETHO   H2151154  19.103   7.436  21.279
  241ETHO   H2351155  19.195   7.576  21.215
  242ETHO    O151156  19.072   7.468  21.086
  242ETHO    C151157  19.190   7.395  21.048
  242ETHO   H1151158  19.226   7.340  21.137
  242ETHO   H1351159  19.264   7.464  21.002
  242ETHO    C251160  19.155   7.287  20.948
  242ETHO   H2151161  19.244   7.225  20.924
  242ETHO   H2351162  19.100   7.336  20.865
  243ETHO    O151163  19.061   7.196  21.006
  243ETHO    C151164  19.003   7.113  20.912
  243ETHO   H1151165  18.939   7.169  20.840
  243ETHO   H1351166  19.088   7.065  20.859
  243ETHO    C251167  18.932   6.999  20.989
  243ETHO   H2151168  18.852   6.962  20.922
  243ETHO   H2351169  18.890   7.054  21.076
  244ETHO    O151170  19.018   6.898  21.033
  244ETHO    C151171  18.942   6.792  21.090
  244ETHO   H1151172  18.886   6.752  21.003
  244ETHO   H1351173  18.871   6.821  21.170
  244ETHO    C251174  19.041   6.689  21.146
  244ETHO   H2151175  19.134   6.679  21.085
  244ETHO   H2351176  18.991   6.590  21.139
  245ETHO    O151177  19.078   6.715  21.277
  245ETHO    C151178  19.197   6.646  21.326
  245ETHO   H1151179  19.174   6.538  21.314
  245ETHO   H1351180  19.285   6.654  21.259
  245ETHO    C251181  19.231   6.698  21.468
  245ETHO   H2151182  19.303   6.626  21.512
  245ETHO   H2351183  19.135   6.711  21.523
  246ETHO    O151184  19.291   6.825  21.453
  246ETHO    C151185  19.342   6.868  21.575
  246ETHO   H1151186  19.417   6.949  21.560
  246ETHO   H1351187  19.394   6.786  21.629
  246ETHO    C251188  19.236   6.912  21.681
  246ETHO   H2151189  19.294   6.922  21.776
  246ETHO   H2351190  19.149   6.847  21.705
  247ETHO    O151191  19.196   7.043  21.645
  247ETHO    C151192  19.057   7.065  21.665
  247ETHO   H1151193  18.993   6.989  21.614
  247ETHO   H1351194  19.033   7.064  21.773
  247ETHO    C251195  19.033   7.204  21.607
  247ETHO   H2151196  19.096   7.223  21.518
  247ETHO   H2351197  18.931   7.208  21.563
  248ETHO    O151198  19.033   7.311  21.704
  248ETHO    C151199  19.002   7.436  21.648
  248ETHO   H1151200  19.086   7.452  21.577
  248ETHO   H1351201  18.909   7.428  21.587
  248ETHO    C251202  19.007   7.540  21.758
  248ETHO   H2151203  19.070   7.513  21.845
  248ETHO   H2351204  18.903   7.554  21.796
  249ETHO    O151205  19.053   7.658  21.692
  249ETHO    C151206  19.037   7.764  21.791
  249ETHO   H1151207  18.983   7.730  21.882
  249ETHO   H1351208  19.137   7.789  21.831
  249ETHO    C251209  18.968   7.892  21.742
  249ETHO   H2151210  18.944   7.956  21.830
  249ETHO   H2351211  18.878   7.847  21.694
  250ETHO    O151212  19.040   7.969  21.651
  250ETHO    C151213  18.951   8.070  21.599
  250ETHO   H1151214  18.867   8.015  21.551
  250ETHO   H1351215  18.925   8.129  21.689
  250ETHO    C251216  19.021   8.165  21.503
  250ETHO   H2151217  19.108   8.219  21.547
  250ETHO   H2351218  18.947   8.243  21.474
  251ETHO    O151219  19.047   8.091  21.388
  251ETHO    C151220  19.120   8.169  21.289
  251ETHO   H1151221  19.133   8.104  21.200
  251ETHO   H1351222  19.226   8.175  21.325
  251ETHO    C251223  19.074   8.312  21.253
  251ETHO   H2151224  19.117   8.340  21.154
  251ETHO   H2351225  19.113   8.375  21.336
  252ETHO    O151226  18.931   8.327  21.216
  252ETHO    C151227  18.891   8.464  21.219
  252ETHO   H1151228  18.846   8.474  21.321
  252ETHO   H1351229  18.979   8.531  21.217
  252ETHO    C251230  18.776   8.497  21.123
  252ETHO   H2151231  18.831   8.481  21.027
  252ETHO   H2351232  18.756   8.606  21.124
  253ETHO    O151233  18.657   8.413  21.139
  253ETHO    C151234  18.552   8.417  21.040
  253ETHO   H1151235  18.593   8.413  20.937
  253ETHO   H1351236  18.493   8.510  21.055
  253ETHO    C251237  18.449   8.303  21.061
  253ETHO   H2151238  18.376   8.316  20.979
  253ETHO   H2351239  18.396   8.310  21.158
  254ETHO    O151240  18.505   8.169  21.061
  254ETHO    C151241  18.405   8.068  21.060
  254ETHO   H1151242  18.350   8.052  21.155
  254ETHO   H1351243  18.325   8.100  20.990
  254ETHO    C251244  18.473   7.938  21.009
  254ETHO   H2151245  18.397   7.858  21.007
  254ETHO   H2351246  18.544   7.924  21.094
  255ETHO    O151247  18.549   7.949  20.889
  255ETHO    C151248  18.464   7.997  20.783
  255ETHO   H1151249  18.476   8.108  20.778
  255ETHO   H1351250  18.360   7.965  20.804
  255ETHO    C251251  18.507   7.935  20.653
  255ETHO   H2151252  18.612   7.968  20.641
  255ETHO   H2351253  18.452   7.984  20.570
  256ETHO    O151254  18.504   7.788  20.656
  256ETHO    C151255  18.533   7.734  20.532
  256ETHO   H1151256  18.510   7.792  20.439
  256ETHO   H1351257  18.643   7.718  20.538
  256ETHO    C251258  18.477   7.590  20.518
  256ETHO   H2151259  18.498   7.540  20.420
  256ETHO   H2351260  18.367   7.582  20.524
  257ETHO    O151261  18.538   7.512  20.619
  257ETHO    C151262  18.459   7.397  20.656
  257ETHO   H1151263  18.475   7.314  20.585
  257ETHO   H1351264  18.352   7.427  20.661
  257ETHO    C251265  18.475   7.342  20.805
  257ETHO   H2151266  18.392   7.271  20.829
  257ETHO   H2351267  18.460   7.429  20.872
  258ETHO    O151268  18.598   7.281  20.831
  258ETHO    C151269  18.598   7.197  20.948
  258ETHO   H1151270  18.700   7.200  20.990
  258ETHO   H1351271  18.526   7.243  21.019
  258ETHO    C251272  18.553   7.043  20.918
  258ETHO   H2151273  18.445   7.043  20.891
  258ETHO   H2351274  18.575   6.979  21.006
  259ETHO    O151275  18.631   6.990  20.812
  259ETHO    C151276  18.589   6.853  20.799
  259ETHO   H1151277  18.599   6.800  20.896
  259ETHO   H1351278  18.485   6.854  20.761
  259ETHO    C251279  18.675   6.784  20.696
  259ETHO   H2151280  18.670   6.823  20.592
  259ETHO   H2351281  18.646   6.677  20.701
  260ETHO    O151282  18.818   6.792  20.740
  260ETHO    C151283  18.906   6.764  20.632
  260ETHO   H1151284  18.880   6.665  20.587
  260ETHO   H1351285  18.888   6.847  20.560
  260ETHO    C251286  19.052   6.770  20.677
  260ETHO   H2151287  19.063   6.722  20.777
  260ETHO   H2351288  19.086   6.876  20.686
  261ETHO    O151289  19.151   6.707  20.589
  261ETHO    C151290  19.283   6.741  20.619
  261ETHO   H1151291  19.299   6.851  20.621
  261ETHO   H1351292  19.311   6.697  20.717
  261ETHO    C251293  19.393   6.679  20.532
  261ETHO   H2151294  19.494   6.726  20.532
  261ETHO   H2351295  19.363   6.691  20.426
  262ETHO    O151296  19.414   6.534  20.570
  262ETHO    C151297  19.493   6.463  20.479
  262ETHO   H1151298  19.593   6.509  20.464
  262ETHO   H1351299  19.438   6.460  20.382
  262ETHO    C251300  19.527   6.313  20.515
  262ETHO   H2151301  19.539   6.262  20.417
  262ETHO   H2351302  19.446   6.281  20.584
  263ETHO    O151303  19.649   6.289  20.580
  263ETHO    C151304  19.652   6.151  20.613
  263ETHO   H1151305  19.626   6.091  20.523
  263ETHO   H1351306  19.573   6.132  20.688
  263ETHO    C251307  19.789   6.106  20.656
  263ETHO   H2151308  19.797   5.997  20.679
  263ETHO   H2351309  19.824   6.168  20.741
  264ETHO    O151310  19.877   6.125  20.552
  264ETHO    C151311  20.005   6.100  20.586
  264ETHO   H1151312  20.025   6.050  20.684
  264ETHO   H1351313  20.050   6.202  20.588
  264ETHO    C251314  20.081   6.020  20.481
  264ETHO   H2151315  20.191   6.026  20.493
  264ETHO   H2351316  20.048   6.064  20.384
  265ETHO    O151317  20.026   5.882  20.488
  265ETHO    C151318  20.076   5.805  20.376
  265ETHO   H1151319  20.004   5.720  20.374
  265ETHO   H1351320  20.077   5.854  20.276
  265ETHO    C251321  20.215   5.730  20.390
  265ETHO   H2151322  20.210   5.652  20.310
  265ETHO   H2351323  20.208   5.664  20.479
  265ETHO    OZ51324  20.330   5.810  20.371
  265ETHO   HZ151325  20.409   5.757  20.385
    1ETHO    O151326   5.600   7.095   8.693
    1ETHO   HO151327   5.585   7.000   8.694
    1ETHO    C151328   5.585   7.123   8.559
    1ETHO   H1151329   5.664   7.077   8.496
    1ETHO   H1351330   5.594   7.233   8.543
    1ETHO    C251331   5.447   7.087   8.510
    1ETHO   H2151332   5.432   7.115   8.404
    1ETHO   H2351333   5.375   7.135   8.580
    2ETHO    O151334   5.445   6.947   8.505
    2ETHO    C151335   5.330   6.896   8.440
    2ETHO   H1151336   5.235   6.945   8.472
    2ETHO   H1351337   5.353   6.916   8.334
    2ETHO    C251338   5.319   6.742   8.445
    2ETHO   H2151339   5.416   6.701   8.410
    2ETHO   H2351340   5.238   6.710   8.376
    3ETHO    O151341   5.282   6.704   8.579
    3ETHO    C151342   5.327   6.579   8.610
    3ETHO   H1151343   5.438   6.571   8.618
    3ETHO   H1351344   5.281   6.503   8.543
    3ETHO    C251345   5.278   6.559   8.752
    3ETHO   H2151346   5.168   6.575   8.750
    3ETHO   H2351347   5.330   6.636   8.813
    4ETHO    O151348   5.301   6.428   8.807
    4ETHO    C151349   5.223   6.397   8.920
    4ETHO   H1151350   5.279   6.326   8.984
    4ETHO   H1351351   5.207   6.484   8.988
    4ETHO    C251352   5.088   6.352   8.882
    4ETHO   H2151353   5.039   6.415   8.804
    4ETHO   H2351354   5.015   6.353   8.966
    5ETHO    O151355   5.101   6.218   8.836
    5ETHO    C151356   5.113   6.206   8.697
    5ETHO   H1151357   5.042   6.267   8.638
    5ETHO   H1351358   5.215   6.231   8.661
    5ETHO    C251359   5.082   6.053   8.659
    5ETHO   H2151360   5.148   5.990   8.723
    5ETHO   H2351361   5.087   6.031   8.550
    6ETHO    O151362   4.952   6.029   8.691
    6ETHO    C151363   4.931   5.887   8.681
    6ETHO   H1151364   4.950   5.845   8.580
    6ETHO   H1351365   5.001   5.831   8.747
    6ETHO    C251366   4.787   5.845   8.713
    6ETHO   H2151367   4.765   5.888   8.812
    6ETHO   H2351368   4.783   5.734   8.715
    7ETHO    O151369   4.696   5.897   8.607
    7ETHO    C151370   4.560   5.881   8.637
    7ETHO   H1151371   4.547   5.784   8.690
    7ETHO   H1351372   4.523   5.969   8.693
    7ETHO    C251373   4.479   5.873   8.500
    7ETHO   H2151374   4.376   5.835   8.514
    7ETHO   H2351375   4.527   5.795   8.438
    8ETHO    O151376   4.473   6.002   8.439
    8ETHO    C151377   4.384   6.001   8.332
    8ETHO   H1151378   4.288   5.955   8.365
    8ETHO   H1351379   4.426   5.939   8.250
    8ETHO    C251380   4.334   6.127   8.276
    8ETHO   H2151381   4.301   6.186   8.364
    8ETHO   H2351382   4.243   6.104   8.217
    9ETHO    O151383   4.430   6.200   8.207
    9ETHO    C151384   4.379   6.303   8.114
    9ETHO   H1151385   4.469   6.347   8.065
    9ETHO   H1351386   4.328   6.249   8.031
    9ETHO    C251387   4.282   6.412   8.169
    9ETHO   H2151388   4.233   6.468   8.087
    9ETHO   H2351389   4.348   6.485   8.220
   10ETHO    O151390   4.187   6.383   8.265
   10ETHO    C151391   4.060   6.352   8.207
   10ETHO   H1151392   4.067   6.265   8.138
   10ETHO   H1351393   4.026   6.432   8.137
   10ETHO    C251394   3.955   6.326   8.320
   10ETHO   H2151395   3.988   6.247   8.391
   10ETHO   H2351396   3.858   6.296   8.273
   11ETHO    O151397   3.923   6.441   8.399
   11ETHO    C151398   3.811   6.407   8.486
   11ETHO   H1151399   3.719   6.433   8.430
   11ETHO   H1351400   3.799   6.298   8.507
   11ETHO    C251401   3.822   6.485   8.617
   11ETHO   H2151402   3.913   6.449   8.669
   11ETHO   H2351403   3.834   6.595   8.608
   12ETHO    O151404   3.716   6.471   8.708
   12ETHO    C151405   3.748   6.547   8.826
   12ETHO   H1151406   3.778   6.649   8.792
   12ETHO   H1351407   3.838   6.504   8.875
   12ETHO    C251408   3.640   6.554   8.929
   12ETHO   H2151409   3.550   6.596   8.881
   12ETHO   H2351410   3.667   6.626   9.009
   13ETHO    O151411   3.618   6.428   8.991
   13ETHO    C151412   3.487   6.412   9.048
   13ETHO   H1151413   3.472   6.488   9.127
   13ETHO   H1351414   3.406   6.427   8.973
   13ETHO    C251415   3.475   6.271   9.103
   13ETHO   H2151416   3.373   6.255   9.144
   13ETHO   H2351417   3.546   6.255   9.188
   14ETHO    O151418   3.506   6.184   8.998
   14ETHO    C151419   3.445   6.050   9.012
   14ETHO   H1151420   3.335   6.065   9.010
   14ETHO   H1351421   3.484   6.000   9.103
   14ETHO    C251422   3.473   5.961   8.889
   14ETHO   H2151423   3.582   5.947   8.874
   14ETHO   H2351424   3.441   6.021   8.801
   15ETHO    O151425   3.395   5.848   8.886
   15ETHO    C151426   3.447   5.752   8.789
   15ETHO   H1151427   3.431   5.786   8.684
   15ETHO   H1351428   3.556   5.735   8.798
   15ETHO    C251429   3.378   5.614   8.816
   15ETHO   H2151430   3.267   5.612   8.815
   15ETHO   H2351431   3.394   5.555   8.723
   16ETHO    O151432   3.440   5.555   8.931
   16ETHO    C151433   3.387   5.424   8.955
   16ETHO   H1151434   3.278   5.444   8.966
   16ETHO   H1351435   3.399   5.360   8.866
   16ETHO    C251436   3.428   5.354   9.091
   16ETHO   H2151437   3.354   5.278   9.125
   16ETHO   H2351438   3.442   5.419   9.180
   17ETHO    O151439   3.555   5.287   9.066
   17ETHO    C151440   3.660   5.382   9.065
   17ETHO   H1151441   3.637   5.477   9.012
   17ETHO   H1351442   3.679   5.413   9.170
   17ETHO    C251443   3.803   5.322   9.020
   17ETHO   H2151444   3.817   5.352   8.914
   17ETHO   H2351445   3.787   5.212   9.024
   18ETHO    O151446   3.911   5.374   9.101
   18ETHO    C151447   4.024   5.300   9.071
   18ETHO   H1151448   3.992   5.198   9.042
   18ETHO   H1351449   4.079   5.345   8.985
   18ETHO    C251450   4.115   5.296   9.200
   18ETHO   H2151451   4.120   5.400   9.238
   18ETHO   H2351452   4.218   5.269   9.170
   19ETHO    O151453   4.057   5.213   9.300
   19ETHO    C151454   4.132   5.098   9.356
   19ETHO   H1151455   4.238   5.129   9.363
   19ETHO   H1351456   4.137   5.012   9.285
   19ETHO    C251457   4.085   5.041   9.493
   19ETHO   H2151458   4.090   5.113   9.577
   19ETHO   H2351459   4.151   4.955   9.520
   20ETHO    O151460   3.946   4.995   9.483
   20ETHO    C151461   3.895   4.941   9.601
   20ETHO   H1151462   3.921   4.834   9.614
   20ETHO   H1351463   3.942   5.001   9.683
   20ETHO    C251464   3.746   4.954   9.609
   20ETHO   H2151465   3.712   4.886   9.690
   20ETHO   H2351466   3.701   4.917   9.515
   21ETHO    O151467   3.710   5.089   9.630
   21ETHO    C151468   3.635   5.103   9.753
   21ETHO   H1151469   3.684   5.051   9.839
   21ETHO   H1351470   3.539   5.049   9.741
   21ETHO    C251471   3.613   5.253   9.798
   21ETHO   H2151472   3.532   5.249   9.874
   21ETHO   H2351473   3.578   5.325   9.721
   22ETHO    O151474   3.734   5.303   9.863
   22ETHO    C151475   3.704   5.407   9.951
   22ETHO   H1151476   3.653   5.477   9.881
   22ETHO   H1351477   3.646   5.361  10.034
   22ETHO    C251478   3.836   5.454  10.006
   22ETHO   H2151479   3.806   5.531  10.080
   22ETHO   H2351480   3.879   5.365  10.058
   23ETHO    O151481   3.920   5.503   9.905
   23ETHO    C151482   4.031   5.573   9.942
   23ETHO   H1151483   4.105   5.555   9.861
   23ETHO   H1351484   4.068   5.512  10.027
   23ETHO    C251485   4.003   5.722   9.969
   23ETHO   H2151486   3.919   5.737  10.039
   23ETHO   H2351487   3.981   5.768   9.870
   24ETHO    O151488   4.119   5.792  10.025
   24ETHO    C151489   4.103   5.935  10.022
   24ETHO   H1151490   4.092   5.968   9.917
   24ETHO   H1351491   4.009   5.962  10.075
   24ETHO    C251492   4.212   6.005  10.100
   24ETHO   H2151493   4.303   5.942  10.100
   24ETHO   H2351494   4.177   6.015  10.205
   25ETHO    O151495   4.248   6.129  10.047
   25ETHO    C151496   4.167   6.242  10.078
   25ETHO   H1151497   4.148   6.237  10.188
   25ETHO   H1351498   4.068   6.221  10.031
   25ETHO    C251499   4.218   6.375  10.042
   25ETHO   H2151500   4.140   6.452  10.026
   25ETHO   H2351501   4.285   6.379   9.954
   26ETHO    O151502   4.309   6.409  10.145
   26ETHO    C151503   4.448   6.395  10.128
   26ETHO   H1151504   4.476   6.289  10.110
   26ETHO   H1351505   4.481   6.456  10.042
   26ETHO    C251506   4.526   6.451  10.251
   26ETHO   H2151507   4.632   6.418  10.244
   26ETHO   H2351508   4.484   6.413  10.346
   27ETHO    O151509   4.513   6.599  10.270
   27ETHO    C151510   4.601   6.637  10.380
   27ETHO   H1151511   4.702   6.650  10.336
   27ETHO   H1351512   4.585   6.562  10.460
   27ETHO    C251513   4.549   6.778  10.411
   27ETHO   H2151514   4.505   6.817  10.317
   27ETHO   H2351515   4.635   6.843  10.438
   28ETHO    O151516   4.446   6.778  10.514
   28ETHO    C151517   4.402   6.912  10.532
   28ETHO   H1151518   4.397   6.953  10.429
   28ETHO   H1351519   4.299   6.922  10.571
   28ETHO    C251520   4.500   7.004  10.601
   28ETHO   H2151521   4.456   7.106  10.593
   28ETHO   H2351522   4.608   6.992  10.580
   29ETHO    O151523   4.487   6.962  10.738
   29ETHO    C151524   4.566   7.039  10.826
   29ETHO   H1151525   4.503   7.126  10.858
   29ETHO   H1351526   4.657   7.078  10.775
   29ETHO    C251527   4.621   6.978  10.958
   29ETHO   H2151528   4.543   6.916  11.008
   29ETHO   H2351529   4.652   7.064  11.021
   30ETHO    O151530   4.728   6.891  10.938
   30ETHO    C151531   4.789   6.848  11.061
   30ETHO   H1151532   4.896   6.819  11.049
   30ETHO   H1351533   4.778   6.928  11.137
   30ETHO    C251534   4.719   6.735  11.138
   30ETHO   H2151535   4.611   6.758  11.145
   30ETHO   H2351536   4.757   6.728  11.242
   31ETHO    O151537   4.747   6.604  11.078
   31ETHO    C151538   4.646   6.508  11.111
   31ETHO   H1151539   4.661   6.499  11.221
   31ETHO   H1351540   4.546   6.549  11.086
   31ETHO    C251541   4.680   6.373  11.050
   31ETHO   H2151542   4.763   6.314  11.093
   31ETHO   H2351543   4.724   6.388  10.949
   32ETHO    O151544   4.560   6.298  11.036
   32ETHO    C151545   4.587   6.174  10.966
   32ETHO   H1151546   4.640   6.198  10.871
   32ETHO   H1351547   4.670   6.127  11.023
   32ETHO    C251548   4.455   6.090  10.947
   32ETHO   H2151549   4.478   5.999  10.888
   32ETHO   H2351550   4.385   6.148  10.882
   33ETHO    O151551   4.403   6.050  11.068
   33ETHO    C151552   4.305   5.944  11.060
   33ETHO   H1151553   4.265   5.929  11.162
   33ETHO   H1351554   4.212   5.969  11.005
   33ETHO    C251555   4.349   5.803  11.000
   33ETHO   H2151556   4.281   5.722  11.034
   33ETHO   H2351557   4.449   5.773  11.037
   34ETHO    O151558   4.354   5.796  10.855
   34ETHO    C151559   4.233   5.812  10.789
   34ETHO   H1151560   4.223   5.922  10.779
   34ETHO   H1351561   4.145   5.791  10.854
   34ETHO    C251562   4.230   5.741  10.660
   34ETHO   H2151563   4.334   5.727  10.624
   34ETHO   H2351564   4.189   5.799  10.575
   35ETHO    O151565   4.163   5.616  10.679
   35ETHO    C151566   4.229   5.506  10.616
   35ETHO   H1151567   4.336   5.500  10.644
   35ETHO   H1351568   4.174   5.422  10.664
   35ETHO    C251569   4.219   5.507  10.463
   35ETHO   H2151570   4.121   5.550  10.431
   35ETHO   H2351571   4.213   5.403  10.425
   36ETHO    O151572   4.323   5.574  10.389
   36ETHO    C151573   4.269   5.627  10.271
   36ETHO   H1151574   4.218   5.724  10.290
   36ETHO   H1351575   4.208   5.557  10.211
   36ETHO    C251576   4.381   5.661  10.185
   36ETHO   H2151577   4.343   5.698  10.088
   36ETHO   H2351578   4.447   5.574  10.163
   37ETHO    O151579   4.467   5.757  10.242
   37ETHO    C151580   4.562   5.799  10.148
   37ETHO   H1151581   4.640   5.725  10.119
   37ETHO   H1351582   4.517   5.827  10.050
   37ETHO    C251583   4.637   5.924  10.199
   37ETHO   H2151584   4.694   5.904  10.292
   37ETHO   H2351585   4.560   5.998  10.228
   38ETHO    O151586   4.730   5.967  10.097
   38ETHO    C151587   4.715   6.112  10.084
   38ETHO   H1151588   4.709   6.155  10.187
   38ETHO   H1351589   4.623   6.132  10.025
   38ETHO    C251590   4.830   6.177  10.008
   38ETHO   H2151591   4.805   6.285  10.008
   38ETHO   H2351592   4.837   6.118   9.914
   39ETHO    O151593   4.944   6.183  10.085
   39ETHO    C151594   5.051   6.267  10.040
   39ETHO   H1151595   5.096   6.214   9.954
   39ETHO   H1351596   5.005   6.356   9.993
   39ETHO    C251597   5.144   6.307  10.157
   39ETHO   H2151598   5.243   6.347  10.126
   39ETHO   H2351599   5.170   6.219  10.221
   40ETHO    O151600   5.079   6.405  10.242
   40ETHO    C151601   5.168   6.447  10.350
   40ETHO   H1151602   5.250   6.502  10.299
   40ETHO   H1351603   5.207   6.359  10.406
   40ETHO    C251604   5.096   6.543  10.453
   40ETHO   H2151605   5.027   6.618  10.409
   40ETHO   H2351606   5.178   6.604  10.498
   41ETHO    O151607   5.037   6.473  10.557
   41ETHO    C151608   4.976   6.568  10.645
   41ETHO   H1151609   5.027   6.666  10.635
   41ETHO   H1351610   4.870   6.584  10.614
   41ETHO    C251611   4.988   6.525  10.789
   41ETHO   H2151612   4.952   6.421  10.801
   41ETHO   H2351613   4.915   6.584  10.849
   42ETHO    O151614   5.114   6.536  10.833
   42ETHO    C151615   5.137   6.517  10.970
   42ETHO   H1151616   5.229   6.574  10.996
   42ETHO   H1351617   5.049   6.557  11.024
   42ETHO    C251618   5.154   6.367  11.019
   42ETHO   H2151619   5.163   6.374  11.130
   42ETHO   H2351620   5.247   6.329  10.972
   43ETHO    O151621   5.052   6.282  10.977
   43ETHO    C151622   5.054   6.153  11.034
   43ETHO   H1151623   5.156   6.110  11.034
   43ETHO   H1351624   5.021   6.169  11.139
   43ETHO    C251625   4.950   6.077  10.948
   43ETHO   H2151626   4.857   6.137  10.949
   43ETHO   H2351627   4.921   5.985  11.002
   44ETHO    O151628   4.998   6.045  10.815
   44ETHO    C151629   4.895   5.989  10.733
   44ETHO   H1151630   4.939   5.915  10.663
   44ETHO   H1351631   4.820   5.937  10.796
   44ETHO    C251632   4.845   6.109  10.655
   44ETHO   H2151633   4.910   6.128  10.567
   44ETHO   H2351634   4.833   6.199  10.718
   45ETHO    O151635   4.714   6.076  10.603
   45ETHO    C151636   4.652   6.182  10.536
   45ETHO   H1151637   4.660   6.166  10.426
   45ETHO   H1351638   4.689   6.283  10.565
   45ETHO    C251639   4.506   6.185  10.570
   45ETHO   H2151640   4.472   6.277  10.517
   45ETHO   H2351641   4.483   6.193  10.678
   46ETHO    O151642   4.426   6.083  10.507
   46ETHO    C151643   4.291   6.083  10.538
   46ETHO   H1151644   4.246   5.994  10.490
   46ETHO   H1351645   4.280   6.087  10.649
   46ETHO    C251646   4.206   6.206  10.483
   46ETHO   H2151647   4.098   6.185  10.493
   46ETHO   H2351648   4.232   6.219  10.376
   47ETHO    O151649   4.235   6.324  10.559
   47ETHO    C151650   4.177   6.439  10.498
   47ETHO   H1151651   4.068   6.424  10.480
   47ETHO   H1351652   4.230   6.456  10.402
   47ETHO    C251653   4.193   6.560  10.588
   47ETHO   H2151654   4.144   6.648  10.540
   47ETHO   H2351655   4.301   6.582  10.604
   48ETHO    O151656   4.132   6.563  10.718
   48ETHO    C151657   4.116   6.699  10.771
   48ETHO   H1151658   4.207   6.756  10.743
   48ETHO   H1351659   4.016   6.735  10.738
   48ETHO    C251660   4.097   6.700  10.923
   48ETHO   H2151661   4.066   6.802  10.953
   48ETHO   H2351662   4.012   6.635  10.952
   49ETHO    O151663   4.216   6.666  10.990
   49ETHO    C151664   4.306   6.780  11.002
   49ETHO   H1151665   4.309   6.833  10.905
   49ETHO   H1351666   4.406   6.738  11.024
   49ETHO    C251667   4.277   6.896  11.099
   49ETHO   H2151668   4.369   6.951  11.129
   49ETHO   H2351669   4.227   6.858  11.190
   50ETHO    O151670   4.178   6.984  11.051
   50ETHO    C151671   4.221   7.127  11.071
   50ETHO   H1151672   4.192   7.150  11.176
   50ETHO   H1351673   4.324   7.154  11.041
   50ETHO    C251674   4.123   7.212  10.988
   50ETHO   H2151675   4.131   7.315  11.028
   50ETHO   H2351676   4.022   7.170  11.007
   51ETHO    O151677   4.149   7.219  10.850
   51ETHO    C151678   4.082   7.118  10.779
   51ETHO   H1151679   3.976   7.120  10.813
   51ETHO   H1351680   4.126   7.017  10.794
   51ETHO    C251681   4.075   7.144  10.627
   51ETHO   H2151682   4.025   7.057  10.580
   51ETHO   H2351683   4.175   7.150  10.579
   52ETHO    O151684   3.994   7.261  10.601
   52ETHO    C151685   3.968   7.289  10.461
   52ETHO   H1151686   3.889   7.218  10.428
   52ETHO   H1351687   3.909   7.383  10.456
   52ETHO    C251688   4.093   7.298  10.369
   52ETHO   H2151689   4.181   7.337  10.422
   52ETHO   H2351690   4.075   7.372  10.288
   53ETHO    O151691   4.133   7.174  10.311
   53ETHO    C151692   4.049   7.136  10.209
   53ETHO   H1151693   3.962   7.083  10.254
   53ETHO   H1351694   4.015   7.216  10.140
   53ETHO    C251695   4.117   7.032  10.122
   53ETHO   H2151696   4.045   6.958  10.080
   53ETHO   H2351697   4.188   6.971  10.183
   54ETHO    O151698   4.178   7.096  10.011
   54ETHO    C151699   4.251   7.006   9.927
   54ETHO   H1151700   4.336   6.963   9.984
   54ETHO   H1351701   4.171   6.931   9.906
   54ETHO    C251702   4.292   7.082   9.795
   54ETHO   H2151703   4.376   7.149   9.823
   54ETHO   H2351704   4.207   7.147   9.768
   55ETHO    O151705   4.304   6.986   9.695
   55ETHO    C151706   4.333   7.040   9.563
   55ETHO   H1151707   4.252   7.097   9.511
   55ETHO   H1351708   4.416   7.112   9.573
   55ETHO    C251709   4.375   6.933   9.462
   55ETHO   H2151710   4.393   6.983   9.364
   55ETHO   H2351711   4.467   6.880   9.494
   56ETHO    O151712   4.275   6.835   9.441
   56ETHO    C151713   4.279   6.782   9.312
   56ETHO   H1151714   4.384   6.750   9.293
   56ETHO   H1351715   4.263   6.864   9.238
   56ETHO    C251716   4.183   6.664   9.308
   56ETHO   H2151717   4.214   6.585   9.379
   56ETHO   H2351718   4.197   6.612   9.211
   57ETHO    O151719   4.043   6.694   9.328
   57ETHO    C151720   3.965   6.579   9.293
   57ETHO   H1151721   3.998   6.536   9.196
   57ETHO   H1351722   3.982   6.505   9.375
   57ETHO    C251723   3.818   6.618   9.283
   57ETHO   H2151724   3.762   6.547   9.219
   57ETHO   H2351725   3.807   6.712   9.225
   58ETHO    O151726   3.756   6.616   9.416
   58ETHO    C151727   3.633   6.683   9.413
   58ETHO   H1151728   3.570   6.620   9.347
   58ETHO   H1351729   3.655   6.786   9.378
   58ETHO    C251730   3.567   6.683   9.555
   58ETHO   H2151731   3.648   6.713   9.626
   58ETHO   H2351732   3.541   6.579   9.584
   59ETHO    O151733   3.458   6.767   9.565
   59ETHO    C151734   3.381   6.743   9.681
   59ETHO   H1151735   3.374   6.633   9.698
   59ETHO   H1351736   3.431   6.787   9.770
   59ETHO    C251737   3.236   6.793   9.660
   59ETHO   H2151738   3.203   6.738   9.569
   59ETHO   H2351739   3.225   6.902   9.643
   60ETHO    O151740   3.154   6.753   9.765
   60ETHO    C151741   3.022   6.812   9.750
   60ETHO   H1151742   2.963   6.772   9.665
   60ETHO   H1351743   3.023   6.922   9.737
   60ETHO    C251744   2.945   6.793   9.882
   60ETHO   H2151745   2.850   6.849   9.879
   60ETHO   H2351746   3.002   6.838   9.966
   61ETHO    O151747   2.906   6.657   9.902
   61ETHO    C151748   2.850   6.636  10.039
   61ETHO   H1151749   2.909   6.681  10.122
   61ETHO   H1351750   2.749   6.682  10.036
   61ETHO    C251751   2.858   6.486  10.078
   61ETHO   H2151752   2.831   6.429   9.987
   61ETHO   H2351753   2.784   6.466  10.159
   62ETHO    O151754   2.985   6.446  10.127
   62ETHO    C151755   2.982   6.304  10.154
   62ETHO   H1151756   2.935   6.241  10.076
   62ETHO   H1351757   2.943   6.290  10.257
   62ETHO    C251758   3.130   6.253  10.163
   62ETHO   H2151759   3.175   6.263  10.062
   62ETHO   H2351760   3.115   6.144  10.172
   63ETHO    O151761   3.198   6.323  10.266
   63ETHO    C151762   3.337   6.298  10.259
   63ETHO   H1151763   3.353   6.188  10.257
   63ETHO   H1351764   3.369   6.339  10.161
   63ETHO    C251765   3.427   6.354  10.372
   63ETHO   H2151766   3.535   6.333  10.385
   63ETHO   H2351767   3.383   6.328  10.471
   64ETHO    O151768   3.424   6.499  10.363
   64ETHO    C151769   3.511   6.556  10.269
   64ETHO   H1151770   3.479   6.534  10.165
   64ETHO   H1351771   3.612   6.508  10.269
   64ETHO    C251772   3.512   6.710  10.290
   64ETHO   H2151773   3.409   6.736  10.323
   64ETHO   H2351774   3.535   6.773  10.202
   65ETHO    O151775   3.610   6.733  10.393
   65ETHO    C151776   3.606   6.865  10.435
   65ETHO   H1151777   3.647   6.932  10.356
   65ETHO   H1351778   3.501   6.899  10.438
   65ETHO    C251779   3.664   6.889  10.573
   65ETHO   H2151780   3.668   6.999  10.592
   65ETHO   H2351781   3.771   6.862  10.582
   66ETHO    O151782   3.587   6.828  10.677
   66ETHO    C151783   3.524   6.917  10.764
   66ETHO   H1151784   3.443   6.968  10.706
   66ETHO   H1351785   3.601   6.990  10.796
   66ETHO    C251786   3.467   6.853  10.892
   66ETHO   H2151787   3.420   6.757  10.861
   66ETHO   H2351788   3.390   6.923  10.931
   67ETHO    O151789   3.565   6.831  10.990
   67ETHO    C151790   3.646   6.718  10.949
   67ETHO   H1151791   3.577   6.632  10.959
   67ETHO   H1351792   3.688   6.738  10.848
   67ETHO    C251793   3.767   6.685  11.036
   67ETHO   H2151794   3.836   6.771  11.024
   67ETHO   H2351795   3.799   6.586  10.997
   68ETHO    O151796   3.716   6.678  11.166
   68ETHO    C151797   3.809   6.688  11.276
   68ETHO   H1151798   3.894   6.618  11.257
   68ETHO   H1351799   3.861   6.785  11.288
   68ETHO    C251800   3.735   6.669  11.406
   68ETHO   H2151801   3.684   6.571  11.413
   68ETHO   H2351802   3.641   6.728  11.411
   69ETHO    O151803   3.815   6.699  11.531
   69ETHO    C151804   3.908   6.596  11.558
   69ETHO   H1151805   3.853   6.499  11.564
   69ETHO   H1351806   3.968   6.573  11.468
   69ETHO    C251807   3.994   6.638  11.679
   69ETHO   H2151808   4.035   6.741  11.665
   69ETHO   H2351809   4.077   6.569  11.704
   70ETHO    O151810   3.932   6.645  11.806
   70ETHO    C151811   4.019   6.677  11.914
   70ETHO   H1151812   4.067   6.579  11.937
   70ETHO   H1351813   4.097   6.749  11.879
   70ETHO    C251814   3.958   6.731  12.042
   70ETHO   H2151815   4.030   6.732  12.127
   70ETHO   H2351816   3.869   6.676  12.081
   71ETHO    O151817   3.931   6.858  12.019
   71ETHO    C151818   3.881   6.933  12.135
   71ETHO   H1151819   3.939   6.928  12.230
   71ETHO   H1351820   3.781   6.893  12.163
   71ETHO    C251821   3.854   7.082  12.096
   71ETHO   H2151822   3.938   7.106  12.028
   71ETHO   H2351823   3.855   7.137  12.192
   72ETHO    O151824   3.728   7.111  12.034
   72ETHO    C151825   3.691   7.244  12.047
   72ETHO   H1151826   3.682   7.265  12.156
   72ETHO   H1351827   3.776   7.304  12.007
   72ETHO    C251828   3.565   7.297  11.973
   72ETHO   H2151829   3.528   7.390  12.020
   72ETHO   H2351830   3.485   7.222  11.992
   73ETHO    O151831   3.595   7.333  11.837
   73ETHO    C151832   3.477   7.380  11.777
   73ETHO   H1151833   3.433   7.457  11.844
   73ETHO   H1351834   3.414   7.289  11.763
   73ETHO    C251835   3.517   7.452  11.649
   73ETHO   H2151836   3.578   7.543  11.662
   73ETHO   H2351837   3.424   7.491  11.603
   74ETHO    O151838   3.569   7.362  11.553
   74ETHO    C151839   3.467   7.268  11.520
   74ETHO   H1151840   3.450   7.185  11.593
   74ETHO   H1351841   3.366   7.314  11.516
   74ETHO    C251842   3.485   7.192  11.389
   74ETHO   H2151843   3.479   7.262  11.302
   74ETHO   H2351844   3.406   7.116  11.370
   75ETHO    O151845   3.613   7.119  11.379
   75ETHO    C151846   3.626   7.048  11.255
   75ETHO   H1151847   3.527   7.028  11.207
   75ETHO   H1351848   3.674   6.951  11.280
   75ETHO    C251849   3.729   7.117  11.154
   75ETHO   H2151850   3.737   7.062  11.058
   75ETHO   H2351851   3.830   7.124  11.201
   76ETHO    O151852   3.682   7.253  11.116
   76ETHO    C151853   3.601   7.250  10.995
   76ETHO   H1151854   3.660   7.232  10.903
   76ETHO   H1351855   3.528   7.168  11.011
   76ETHO    C251856   3.529   7.384  10.970
   76ETHO   H2151857   3.487   7.426  11.064
   76ETHO   H2351858   3.446   7.367  10.899
   77ETHO    O151859   3.624   7.471  10.907
   77ETHO    C151860   3.738   7.499  10.988
   77ETHO   H1151861   3.817   7.423  10.968
   77ETHO   H1351862   3.716   7.491  11.097
   77ETHO    C251863   3.790   7.636  10.951
   77ETHO   H2151864   3.878   7.671  11.010
   77ETHO   H2351865   3.716   7.718  10.957
   78ETHO    O151866   3.825   7.638  10.816
   78ETHO    C151867   3.929   7.555  10.773
   78ETHO   H1151868   3.998   7.539  10.859
   78ETHO   H1351869   3.889   7.452  10.761
   78ETHO    C251870   3.991   7.586  10.635
   78ETHO   H2151871   3.913   7.569  10.558
   78ETHO   H2351872   4.077   7.519  10.616
   79ETHO    O151873   4.029   7.722  10.644
   79ETHO    C151874   4.079   7.768  10.517
   79ETHO   H1151875   4.169   7.711  10.486
   79ETHO   H1351876   4.003   7.748  10.439
   79ETHO    C251877   4.107   7.917  10.533
   79ETHO   H2151878   4.035   7.957  10.607
   79ETHO   H2351879   4.091   7.965  10.434
   80ETHO    O151880   4.241   7.947  10.573
   80ETHO    C151881   4.244   8.080  10.633
   80ETHO   H1151882   4.177   8.139  10.566
   80ETHO   H1351883   4.207   8.069  10.737
   80ETHO    C251884   4.392   8.123  10.639
   80ETHO   H2151885   4.449   8.063  10.713
   80ETHO   H2351886   4.395   8.226  10.680
   81ETHO    O151887   4.444   8.106  10.510
   81ETHO    C151888   4.565   8.184  10.512
   81ETHO   H1151889   4.599   8.215  10.410
   81ETHO   H1351890   4.551   8.281  10.564
   81ETHO    C251891   4.684   8.116  10.581
   81ETHO   H2151892   4.728   8.198  10.641
   81ETHO   H2351893   4.646   8.030  10.641
   82ETHO    O151894   4.767   8.056  10.489
   82ETHO    C151895   4.877   8.000  10.553
   82ETHO   H1151896   4.905   7.896  10.523
   82ETHO   H1351897   4.847   7.978  10.657
   82ETHO    C251898   4.993   8.089  10.558
   82ETHO   H2151899   5.078   8.042  10.612
   82ETHO   H2351900   4.980   8.193  10.595
   83ETHO    O151901   5.044   8.100  10.425
   83ETHO    C151902   5.156   8.180  10.419
   83ETHO   H1151903   5.122   8.283  10.443
   83ETHO   H1351904   5.238   8.141  10.484
   83ETHO    C251905   5.208   8.184  10.269
   83ETHO   H2151906   5.134   8.248  10.216
   83ETHO   H2351907   5.198   8.078  10.238
   84ETHO    O151908   5.343   8.222  10.246
   84ETHO    C151909   5.385   8.180  10.111
   84ETHO   H1151910   5.325   8.231  10.033
   84ETHO   H1351911   5.376   8.071  10.091
   84ETHO    C251912   5.532   8.228  10.096
   84ETHO   H2151913   5.540   8.321  10.157
   84ETHO   H2351914   5.555   8.236   9.988
   85ETHO    O151915   5.626   8.126  10.146
   85ETHO    C151916   5.756   8.160  10.099
   85ETHO   H1151917   5.780   8.130   9.995
   85ETHO   H1351918   5.775   8.270  10.095
   85ETHO    C251919   5.852   8.099  10.197
   85ETHO   H2151920   5.954   8.099  10.154
   85ETHO   H2351921   5.821   7.992  10.196
   86ETHO    O151922   5.844   8.154  10.331
   86ETHO    C151923   5.968   8.131  10.394
   86ETHO   H1151924   6.052   8.180  10.340
   86ETHO   H1351925   5.989   8.022  10.401
   86ETHO    C251926   5.968   8.191  10.532
   86ETHO   H2151927   6.049   8.148  10.595
   86ETHO   H2351928   5.871   8.171  10.582
   87ETHO    O151929   5.998   8.329  10.519
   87ETHO    C151930   6.001   8.393  10.644
   87ETHO   H1151931   5.893   8.392  10.673
   87ETHO   H1351932   6.053   8.322  10.712
   87ETHO    C251933   6.070   8.529  10.632
   87ETHO   H2151934   6.047   8.596  10.718
   87ETHO   H2351935   6.033   8.579  10.541
   88ETHO    O151936   6.212   8.509  10.628
   88ETHO    C151937   6.277   8.616  10.697
   88ETHO   H1151938   6.247   8.607  10.804
   88ETHO   H1351939   6.257   8.715  10.650
   88ETHO    C251940   6.432   8.603  10.691
   88ETHO   H2151941   6.467   8.499  10.710
   88ETHO   H2351942   6.473   8.665  10.773
   89ETHO    O151943   6.495   8.641  10.568
   89ETHO    C151944   6.635   8.602  10.560
   89ETHO   H1151945   6.692   8.605  10.655
   89ETHO   H1351946   6.647   8.499  10.519
   89ETHO    C251947   6.696   8.709  10.463
   89ETHO   H2151948   6.645   8.719  10.365
   89ETHO   H2351949   6.794   8.663  10.438
   90ETHO    O151950   6.714   8.835  10.527
   90ETHO    C151951   6.808   8.914  10.457
   90ETHO   H1151952   6.895   8.850  10.431
   90ETHO   H1351953   6.757   8.948  10.364
   90ETHO    C251954   6.861   9.044  10.519
   90ETHO   H2151955   6.795   9.082  10.599
   90ETHO   H2351956   6.860   9.128  10.445
   91ETHO    O151957   6.991   9.042  10.582
   91ETHO    C151958   7.001   8.932  10.679
   91ETHO   H1151959   6.919   8.943  10.753
   91ETHO   H1351960   7.003   8.838  10.619
   91ETHO    C251961   7.132   8.943  10.753
   91ETHO   H2151962   7.136   8.884  10.847
   91ETHO   H2351963   7.142   9.051  10.779
   92ETHO    O151964   7.243   8.907  10.675
   92ETHO    C151965   7.365   8.945  10.739
   92ETHO   H1151966   7.371   9.054  10.758
   92ETHO   H1351967   7.368   8.892  10.837
   92ETHO    C251968   7.492   8.923  10.660
   92ETHO   H2151969   7.495   8.814  10.640
   92ETHO   H2351970   7.580   8.936  10.727
   93ETHO    O151971   7.499   8.990  10.538
   93ETHO    C151972   7.616   8.955  10.455
   93ETHO   H1151973   7.607   8.856  10.405
   93ETHO   H1351974   7.705   8.942  10.521
   93ETHO    C251975   7.651   9.062  10.342
   93ETHO   H2151976   7.565   9.095  10.280
   93ETHO   H2351977   7.719   9.016  10.267
   94ETHO    O151978   7.712   9.177  10.391
   94ETHO    C151979   7.782   9.242  10.292
   94ETHO   H1151980   7.876   9.187  10.271
   94ETHO   H1351981   7.720   9.246  10.200
   94ETHO    C251982   7.831   9.387  10.328
   94ETHO   H2151983   7.736   9.439  10.355
   94ETHO   H2351984   7.880   9.431  10.239
   95ETHO    O151985   7.910   9.373  10.442
   95ETHO    C151986   7.945   9.502  10.494
   95ETHO   H1151987   7.850   9.558  10.484
   95ETHO   H1351988   8.019   9.553  10.429
   95ETHO    C251989   7.987   9.508  10.639
   95ETHO   H2151990   7.931   9.427  10.691
   95ETHO   H2351991   7.966   9.603  10.692
   96ETHO    O151992   8.128   9.487  10.654
   96ETHO    C151993   8.174   9.507  10.792
   96ETHO   H1151994   8.121   9.590  10.844
   96ETHO   H1351995   8.132   9.431  10.861
   96ETHO    C251996   8.322   9.524  10.815
   96ETHO   H2151997   8.355   9.440  10.751
   96ETHO   H2351998   8.354   9.526  10.921
   97ETHO    O151999   8.366   9.646  10.763
   97ETHO    C152000   8.513   9.643  10.766
   97ETHO   H1152001   8.541   9.571  10.687
   97ETHO   H1352002   8.548   9.601  10.863
   97ETHO    C252003   8.577   9.781  10.733
   97ETHO   H2152004   8.558   9.871  10.794
   97ETHO   H2352005   8.559   9.808  10.627
   98ETHO    O152006   8.716   9.761  10.750
   98ETHO    C152007   8.787   9.876  10.706
   98ETHO   H1152008   8.764   9.895  10.599
   98ETHO   H1352009   8.748   9.971  10.749
   98ETHO    C252010   8.948   9.876  10.735
   98ETHO   H2152011   8.970   9.985  10.724
   98ETHO   H2352012   9.013   9.826  10.661
   99ETHO    O152013   8.962   9.831  10.865
   99ETHO    C152014   9.094   9.851  10.910
   99ETHO   H1152015   9.161   9.911  10.844
   99ETHO   H1352016   9.138   9.749  10.902
   99ETHO    C252017   9.092   9.914  11.044
   99ETHO   H2152018   9.180   9.865  11.092
   99ETHO   H2352019   8.998   9.888  11.096
  100ETHO    O152020   9.109  10.058  11.046
  100ETHO    C152021   9.093  10.108  11.178
  100ETHO   H1152022   9.010  10.061  11.234
  100ETHO   H1352023   9.178  10.061  11.232
  100ETHO    C252024   9.081  10.257  11.194
  100ETHO   H2152025   9.040  10.274  11.296
  100ETHO   H2352026   9.005  10.303  11.128
  101PROX    O152027   9.206  10.331  11.188
  101PROX    C152028   9.184  10.473  11.191
  101PROX   H1152029   9.133  10.508  11.099
  101PROX   H1352030   9.114  10.496  11.274
  101PROX    C252031   9.314  10.539  11.204
  101PROX   H2152032   9.362  10.533  11.104
  101PROX    C352033   9.394  10.486  11.321
  101PROX   H3152034   9.379  10.376  11.327
  101PROX   H3252035   9.500  10.516  11.311
  101PROX   H3352036   9.356  10.530  11.416
  102PROX    O152037   9.295  10.678  11.231
  102PROX    C152038   9.425  10.744  11.241
  102PROX   H1152039   9.477  10.733  11.338
  102PROX   H1352040   9.510  10.706  11.181
  102PROX    C252041   9.407  10.895  11.223
  102PROX   H2152042   9.377  10.912  11.117
  102PROX    C352043   9.543  10.968  11.229
  102PROX   H3152044   9.573  10.988  11.334
  102PROX   H3252045   9.626  10.909  11.184
  102PROX   H3352046   9.548  11.064  11.173
  103PROX    O152047   9.322  10.951  11.319
  103PROX    C152048   9.285  11.084  11.293
  103PROX   H1152049   9.379  11.140  11.278
  103PROX   H1352050   9.221  11.100  11.204
  103PROX    C252051   9.204  11.145  11.413
  103PROX   H2152052   9.253  11.114  11.507
  103PROX    C352053   9.060  11.093  11.413
  103PROX   H3152054   8.999  11.131  11.328
  103PROX   H3252055   9.053  10.983  11.400
  103PROX   H3352056   9.006  11.117  11.508
  104PROX    O152057   9.213  11.288  11.397
  104PROX    C152058   9.174  11.353  11.521
  104PROX   H1152059   9.122  11.450  11.504
  104PROX   H1352060   9.108  11.290  11.585
  104PROX    C252061   9.310  11.384  11.606
  104PROX   H2152062   9.337  11.284  11.645
  104PROX    C352063   9.285  11.462  11.733
  104PROX   H3152064   9.191  11.424  11.776
  104PROX   H3252065   9.364  11.440  11.808
  104PROX   H3352066   9.273  11.569  11.703
  105PROX    O152067   9.412  11.449  11.532
  105PROX    C152068   9.495  11.360  11.464
  105PROX   H1152069   9.563  11.316  11.541
  105PROX   H1352070   9.448  11.268  11.423
  105PROX    C252071   9.573  11.431  11.358
  105PROX   H2152072   9.617  11.522  11.404
  105PROX    C352073   9.492  11.466  11.241
  105PROX   H3152074   9.547  11.497  11.150
  105PROX   H3252075   9.433  11.381  11.202
  105PROX   H3352076   9.418  11.545  11.266
  106PROX    O152077   9.672  11.339  11.310
  106PROX    C152078   9.802  11.403  11.288
  106PROX   H1152079   9.792  11.474  11.203
  106PROX   H1352080   9.835  11.456  11.380
  106PROX    C252081   9.908  11.292  11.243
  106PROX   H2152082   9.891  11.193  11.291
  106PROX    C352083  10.051  11.332  11.286
  106PROX   H3152084  10.116  11.245  11.265
  106PROX   H3252085  10.094  11.415  11.225
  106PROX   H3352086  10.048  11.358  11.394
  107PROX    O152087   9.908  11.283  11.104
  107PROX    C152088   9.809  11.189  11.062
  107PROX   H1152089   9.827  11.090  11.109
  107PROX   H1352090   9.709  11.227  11.091
  107PROX    C252091   9.830  11.169  10.908
  107PROX   H2152092   9.936  11.186  10.880
  107PROX    C352093   9.744  11.275  10.844
  107PROX   H3152094   9.732  11.266  10.734
  107PROX   H3252095   9.641  11.266  10.886
  107PROX   H3352096   9.783  11.374  10.876
  108PROX    O152097   9.781  11.044  10.860
  108PROX    C152098   9.878  10.939  10.861
  108PROX   H1152099   9.942  10.969  10.776
  108PROX   H1352100   9.942  10.940  10.952
  108PROX    C252101   9.807  10.799  10.840
  108PROX   H2152102   9.719  10.825  10.777
  108PROX    C352103   9.751  10.739  10.968
  108PROX   H3152104   9.720  10.634  10.951
  108PROX   H3252105   9.829  10.728  11.046
  108PROX   H3352106   9.659  10.789  11.005
  109PROX    O152107   9.905  10.714  10.777
  109PROX    C152108   9.843  10.628  10.683
  109PROX   H1152109   9.768  10.568  10.738
  109PROX   H1352110   9.794  10.696  10.611
  109PROX    C252111   9.935  10.534  10.602
  109PROX   H2152112  10.023  10.590  10.565
  109PROX    C352113   9.849  10.494  10.472
  109PROX   H3152114   9.811  10.580  10.413
  109PROX   H3252115   9.931  10.442  10.418
  109PROX   H3352116   9.767  10.422  10.490
  110PROX    O152117   9.983  10.416  10.675
  110PROX    C152118  10.063  10.439  10.792
  110PROX   H1152119  10.011  10.509  10.860
  110PROX   H1352120  10.074  10.338  10.838
  110PROX    C252121  10.208  10.495  10.763
  110PROX   H2152122  10.194  10.600  10.729
  110PROX    C352123  10.286  10.419  10.655
  110PROX   H3152124  10.374  10.480  10.627
  110PROX   H3252125  10.312  10.315  10.681
  110PROX   H3352126  10.223  10.421  10.563
  111PROX    O152127  10.288  10.484  10.879
  111PROX    C152128  10.240  10.561  10.992
  111PROX   H1152129  10.212  10.665  10.967
  111PROX   H1352130  10.150  10.511  11.035
  111PROX    C252131  10.342  10.564  11.111
  111PROX   H2152132  10.445  10.596  11.082
  111PROX    C352133  10.368  10.417  11.161
  111PROX   H3152134  10.433  10.415  11.250
  111PROX   H3252135  10.272  10.371  11.195
  111PROX   H3352136  10.404  10.355  11.076
  112PROX    O152137  10.291  10.652  11.215
  112PROX    C152138  10.314  10.788  11.172
  112PROX   H1152139  10.357  10.791  11.070
  112PROX   H1352140  10.213  10.831  11.189
  112PROX    C252141  10.414  10.873  11.256
  112PROX   H2152142  10.516  10.832  11.238
  112PROX    C352143  10.395  10.858  11.411
  112PROX   H3152144  10.470  10.907  11.476
  112PROX   H3252145  10.294  10.903  11.424
  112PROX   H3352146  10.390  10.752  11.444
  113PROX    O152147  10.412  11.006  11.223
  113PROX    C152148  10.524  11.037  11.141
  113PROX   H1152149  10.610  10.986  11.189
  113PROX   H1352150  10.517  10.995  11.039
  113PROX    C252151  10.555  11.192  11.124
  113PROX   H2152152  10.457  11.243  11.123
  113PROX    C352153  10.641  11.207  10.992
  113PROX   H3152154  10.750  11.197  11.013
  113PROX   H3252155  10.602  11.159  10.900
  113PROX   H3352156  10.650  11.313  10.961
  114PROX    O152157  10.643  11.245  11.221
  114PROX    C152158  10.602  11.229  11.352
  114PROX   H1152159  10.544  11.136  11.371
  114PROX   H1352160  10.697  11.227  11.411
  114PROX    C252161  10.533  11.355  11.407
  114PROX   H2152162  10.439  11.370  11.351
  114PROX    C352163  10.629  11.470  11.378
  114PROX   H3152164  10.723  11.459  11.436
  114PROX   H3252165  10.670  11.477  11.274
  114PROX   H3352166  10.581  11.567  11.402
  115PROX    O152167  10.500  11.341  11.547
  115PROX    C152168  10.387  11.249  11.561
  115PROX   H1152169  10.294  11.303  11.533
  115PROX   H1352170  10.391  11.160  11.494
  115PROX    C252171  10.373  11.189  11.698
  115PROX   H2152172  10.390  11.272  11.769
  115PROX    C352173  10.479  11.085  11.715
  115PROX   H3152174  10.518  11.080  11.819
  115PROX   H3252175  10.432  10.987  11.692
  115PROX   H3352176  10.568  11.100  11.650
  116PROX    O152177  10.234  11.150  11.712
  116PROX    C152178  10.198  11.169  11.847
  116PROX   H1152179  10.122  11.093  11.875
  116PROX   H1352180  10.285  11.158  11.916
  116PROX    C252181  10.132  11.304  11.878
  116PROX   H2152182  10.093  11.310  11.982
  116PROX    C352183  10.005  11.328  11.788
  116PROX   H3152184   9.958  11.413  11.842
  116PROX   H3252185  10.036  11.353  11.685
  116PROX   H3352186   9.934  11.243  11.796
  117PROX    O152187  10.231  11.400  11.873
  117PROX    C152188  10.227  11.494  11.975
  117PROX   H1152189  10.120  11.522  11.991
  117PROX   H1352190  10.272  11.442  12.062
  117PROX    C252191  10.301  11.631  11.945
  117PROX   H2152192  10.249  11.676  11.857
  117PROX    C352193  10.448  11.619  11.897
  117PROX   H3152194  10.507  11.571  11.978
  117PROX   H3252195  10.457  11.564  11.801
  117PROX   H3352196  10.491  11.720  11.875
  118PROX    O152197  10.289  11.707  12.063
  118PROX    C152198  10.247  11.845  12.033
  118PROX   H1152199  10.282  11.903  12.121
  118PROX   H1352200  10.307  11.871  11.943
  118PROX    C252201  10.092  11.870  12.038
  118PROX   H2152202  10.042  11.800  11.967
  118PROX    C352203  10.064  12.008  11.995
  118PROX   H3152204  10.085  12.075  12.082
  118PROX   H3252205  10.108  12.034  11.896
  118PROX   H3352206   9.956  12.023  11.977
  119PROX    O152207  10.039  11.844  12.166
  119PROX    C152208  10.030  11.708  12.206
  119PROX   H1152209  10.108  11.643  12.162
  119PROX   H1352210  10.030  11.700  12.317
  119PROX    C252211   9.891  11.640  12.173
  119PROX   H2152212   9.810  11.702  12.219
  119PROX    C352213   9.892  11.495  12.222
  119PROX   H3152214   9.796  11.451  12.185
  119PROX   H3252215   9.974  11.447  12.165
  119PROX   H3352216   9.900  11.482  12.332
  120PROX    O152217   9.862  11.624  12.033
  120PROX    C152218   9.724  11.643  12.014
  120PROX   H1152219   9.664  11.631  12.107
  120PROX   H1352220   9.719  11.752  11.992
  120PROX    C252221   9.665  11.552  11.899
  120PROX   H2152222   9.560  11.586  11.881
  120PROX    C352223   9.641  11.398  11.938
  120PROX   H3152224   9.591  11.341  11.857
  120PROX   H3252225   9.735  11.341  11.955
  120PROX   H3352226   9.577  11.395  12.029
  121PROX    O152227   9.743  11.565  11.781
  121PROX    C152228   9.730  11.697  11.730
  121PROX   H1152229   9.683  11.697  11.629
  121PROX   H1352230   9.678  11.771  11.795
  121PROX    C252231   9.876  11.748  11.722
  121PROX   H2152232   9.932  11.721  11.814
  121PROX    C352233   9.878  11.896  11.701
  121PROX   H3152234   9.827  11.916  11.605
  121PROX   H3252235   9.832  11.946  11.790
  121PROX   H3352236   9.983  11.930  11.709
  122PROX    O152237   9.940  11.682  11.620
  122PROX    C152238  10.079  11.675  11.646
  122PROX   H1152239  10.112  11.774  11.683
  122PROX   H1352240  10.099  11.593  11.718
  122PROX    C252241  10.165  11.632  11.520
  122PROX   H2152242  10.130  11.532  11.487
  122PROX    C352243  10.314  11.621  11.551
  122PROX   H3152244  10.343  11.553  11.635
  122PROX   H3252245  10.388  11.603  11.471
  122PROX   H3352246  10.341  11.725  11.578
  123PROX    O152247  10.156  11.732  11.421
  123PROX    C152248  10.041  11.712  11.334
  123PROX   H1152249   9.988  11.615  11.347
  123PROX   H1352250   9.963  11.788  11.356
  123PROX    C252251  10.084  11.733  11.189
  123PROX   H2152252  10.125  11.836  11.177
  123PROX    C352253   9.966  11.708  11.097
  123PROX   H3152254   9.877  11.757  11.141
  123PROX   H3252255   9.991  11.760  11.002
  123PROX   H3352256   9.958  11.599  11.075
  124PROX    O152257  10.188  11.642  11.162
  124PROX    C152258  10.318  11.691  11.151
  124PROX   H1152259  10.339  11.789  11.104
  124PROX   H1352260  10.368  11.700  11.249
  124PROX    C252261  10.401  11.588  11.073
  124PROX   H2152262  10.394  11.491  11.126
  124PROX    C352263  10.543  11.643  11.068
  124PROX   H3152264  10.597  11.661  11.163
  124PROX   H3252265  10.602  11.571  11.006
  124PROX   H3352266  10.551  11.743  11.020
  125PROX    O152267  10.334  11.573  10.943
  125PROX    C152268  10.261  11.450  10.938
  125PROX   H1152269  10.320  11.357  10.953
  125PROX   H1352270  10.195  11.454  11.028
  125PROX    C252271  10.178  11.437  10.812
  125PROX   H2152272  10.242  11.471  10.729
  125PROX    C352273  10.049  11.527  10.831
  125PROX   H3152274  10.086  11.620  10.879
  125PROX   H3252275  10.003  11.545  10.732
  125PROX   H3352276   9.977  11.473  10.896
  126PROX    O152277  10.132  11.305  10.787
  126PROX    C152278  10.247  11.220  10.753
  126PROX   H1152279  10.239  11.201  10.644
  126PROX   H1352280  10.345  11.267  10.776
  126PROX    C252281  10.228  11.089  10.838
  126PROX   H2152282  10.136  11.045  10.793
  126PROX    C352283  10.192  11.114  10.985
  126PROX   H3152284  10.275  11.179  11.020
  126PROX   H3252285  10.098  11.172  10.998
  126PROX   H3352286  10.192  11.029  11.056
  127PROX    O152287  10.343  11.009  10.835
  127PROX    C152288  10.370  10.951  10.710
  127PROX   H1152289  10.272  10.903  10.689
  127PROX   H1352290  10.393  11.025  10.630
  127PROX    C252291  10.484  10.852  10.712
  127PROX   H2152292  10.581  10.905  10.726
  127PROX    C352293  10.490  10.778  10.576
  127PROX   H3152294  10.492  10.854  10.495
  127PROX   H3252295  10.578  10.711  10.578
  127PROX   H3352296  10.401  10.714  10.561
  128PROX    O152297  10.471  10.758  10.817
  128PROX    C152298  10.587  10.682  10.841
  128PROX   H1152299  10.553  10.578  10.861
  128PROX   H1352300  10.653  10.669  10.752
  128PROX    C252301  10.667  10.734  10.963
  128PROX   H2152302  10.599  10.754  11.049
  128PROX    C352303  10.754  10.855  10.934
  128PROX   H3152304  10.690  10.937  10.895
  128PROX   H3252305  10.807  10.894  11.024
  128PROX   H3352306  10.828  10.828  10.856
  129PROX    O152307  10.749  10.626  11.009
  129PROX    C152308  10.795  10.633  11.144
  129PROX   H1152309  10.891  10.689  11.146
  129PROX   H1352310  10.723  10.681  11.214
  129PROX    C252311  10.823  10.490  11.196
  129PROX   H2152312  10.884  10.435  11.121
  129PROX    C352313  10.690  10.408  11.199
  129PROX   H3152314  10.697  10.307  11.246
  129PROX   H3252315  10.621  10.463  11.266
  129PROX   H3352316  10.647  10.390  11.098
  130PROX    O152317  10.878  10.481  11.328
  130PROX    C152318  11.008  10.428  11.322
  130PROX   H1152319  11.010  10.318  11.341
  130PROX   H1352320  11.053  10.445  11.222
  130PROX    C252321  11.092  10.484  11.436
  130PROX   H2152322  11.058  10.589  11.449
  130PROX    C352323  11.237  10.491  11.405
  130PROX   H3152324  11.254  10.557  11.317
  130PROX   H3252325  11.295  10.523  11.494
  130PROX   H3352326  11.271  10.388  11.380
  131PROX    O152327  11.070  10.413  11.557
  131PROX    C152328  10.973  10.463  11.648
  131PROX   H1152329  11.020  10.555  11.690
  131PROX   H1352330  10.883  10.481  11.586
  131PROX    C252331  10.943  10.359  11.758
  131PROX   H2152332  11.039  10.331  11.807
  131PROX    C352333  10.866  10.245  11.691
  131PROX   H3152334  10.935  10.207  11.613
  131PROX   H3252335  10.827  10.179  11.771
  131PROX   H3352336  10.783  10.285  11.627
  132PROX    O152337  10.855  10.420  11.857
  132PROX    C152338  10.907  10.520  11.937
  132PROX   H1152339  11.013  10.491  11.953
  132PROX   H1352340  10.902  10.618  11.884
  132PROX    C252341  10.830  10.537  12.074
  132PROX   H2152342  10.807  10.434  12.109
  132PROX    C352343  10.696  10.616  12.049
  132PROX   H3152344  10.660  10.560  11.960
  132PROX   H3252345  10.623  10.603  12.131
  132PROX   H3352346  10.717  10.722  12.024
  133PROX    O152347  10.920  10.593  12.170
  133PROX    C152348  10.857  10.626  12.296
  133PROX   H1152349  10.758  10.581  12.317
  133PROX   H1352350  10.927  10.597  12.377
  133PROX    C252351  10.845  10.786  12.299
  133PROX   H2152352  10.792  10.815  12.205
  133PROX    C352353  10.979  10.846  12.302
  133PROX   H3152354  11.035  10.803  12.216
  133PROX   H3252355  10.969  10.956  12.292
  133PROX   H3352356  11.030  10.833  12.400
  134PROX    O152357  10.778  10.824  12.416
  134PROX    C152358  10.636  10.819  12.408
  134PROX   H1152359  10.593  10.918  12.381
  134PROX   H1352360  10.603  10.737  12.340
  134PROX    C252361  10.574  10.798  12.549
  134PROX   H2152362  10.603  10.889  12.605
  134PROX    C352363  10.615  10.668  12.626
  134PROX   H3152364  10.582  10.584  12.562
  134PROX   H3252365  10.726  10.677  12.631
  134PROX   H3352366  10.571  10.659  12.728
  135PROX    O152367  10.426  10.799  12.537
  135PROX    C152368  10.354  10.814  12.659
  135PROX   H1152369  10.388  10.737  12.731
  135PROX   H1352370  10.386  10.912  12.702
  135PROX    C252371  10.206  10.805  12.640
  135PROX   H2152372  10.177  10.879  12.562
  135PROX    C352373  10.132  10.824  12.768
  135PROX   H3152374  10.163  10.918  12.818
  135PROX   H3252375  10.021  10.827  12.767
  135PROX   H3352376  10.158  10.741  12.837
  136PROX    O152377  10.181  10.673  12.584
  136PROX    C152378  10.050  10.655  12.539
  136PROX   H1152379   9.993  10.609  12.623
  136PROX   H1352380   9.999  10.751  12.517
  136PROX    C252381  10.044  10.559  12.428
  136PROX   H2152382  10.107  10.471  12.452
  136PROX    C352383  10.090  10.620  12.293
  136PROX   H3152384  10.109  10.544  12.213
  136PROX   H3252385  10.023  10.701  12.257
  136PROX   H3352386  10.187  10.666  12.320
  137PROX    O152387   9.907  10.516  12.410
  137PROX    C152388   9.891  10.411  12.321
  137PROX   H1152389   9.860  10.462  12.228
  137PROX   H1352390   9.990  10.366  12.300
  137PROX    C252391   9.797  10.307  12.384
  137PROX   H2152392   9.846  10.282  12.481
  137PROX    C352393   9.775  10.171  12.322
  137PROX   H3152394   9.677  10.133  12.358
  137PROX   H3252395   9.780  10.176  12.211
  137PROX   H3352396   9.858  10.099  12.338
  138PROX    O152397   9.670  10.366  12.408
  138PROX    C152398   9.632  10.341  12.546
  138PROX   H1152399   9.522  10.356  12.554
  138PROX   H1352400   9.645  10.235  12.577
  138PROX    C252401   9.707  10.429  12.656
  138PROX   H2152402   9.812  10.454  12.629
  138PROX    C352403   9.706  10.351  12.791
  138PROX   H3152404   9.609  10.306  12.820
  138PROX   H3252405   9.771  10.262  12.775
  138PROX   H3352406   9.744  10.413  12.874
  139PROX    O152407   9.647  10.556  12.679
  139PROX    C152408   9.620  10.632  12.560
  139PROX   H1152409   9.719  10.631  12.508
  139PROX   H1352410   9.547  10.591  12.486
  139PROX    C252411   9.592  10.777  12.590
  139PROX   H2152412   9.580  10.822  12.490
  139PROX    C352413   9.710  10.837  12.671
  139PROX   H3152414   9.800  10.813  12.610
  139PROX   H3252415   9.705  10.948  12.675
  139PROX   H3352416   9.730  10.789  12.769
  140PROX    O152417   9.468  10.774  12.661
  140PROX    C152418   9.399  10.898  12.663
  140PROX   H1152419   9.342  10.885  12.757
  140PROX   H1352420   9.475  10.978  12.677
  140PROX    C252421   9.307  10.924  12.539
  140PROX   H2152422   9.378  10.929  12.453
  140PROX    C352423   9.243  11.062  12.543
  140PROX   H3152424   9.313  11.147  12.560
  140PROX   H3252425   9.193  11.097  12.450
  140PROX   H3352426   9.159  11.068  12.615
  141PROX    O152427   9.215  10.820  12.510
  141PROX    C152428   9.167  10.819  12.372
  141PROX   H1152429   9.070  10.765  12.377
  141PROX   H1352430   9.172  10.919  12.325
  141PROX    C252431   9.260  10.726  12.290
  141PROX   H2152432   9.212  10.721  12.190
  141PROX    C352433   9.256  10.589  12.353
  141PROX   H3152434   9.298  10.570  12.454
  141PROX   H3252435   9.153  10.548  12.351
  141PROX   H3352436   9.326  10.529  12.290
  142PROX    O152437   9.386  10.784  12.278
  142PROX    C152438   9.402  10.876  12.171
  142PROX   H1152439   9.371  10.817  12.082
  142PROX   H1352440   9.349  10.973  12.188
  142PROX    C252441   9.560  10.898  12.165
  142PROX   H2152442   9.584  10.965  12.080
  142PROX    C352443   9.625  10.762  12.142
  142PROX   H3152444   9.731  10.767  12.109
  142PROX   H3252445   9.627  10.704  12.236
  142PROX   H3352446   9.586  10.699  12.059
  143PROX    O152447   9.610  10.946  12.282
  143PROX    C152448   9.586  11.084  12.299
  143PROX   H1152449   9.599  11.135  12.201
  143PROX   H1352450   9.478  11.086  12.327
  143PROX    C252451   9.680  11.145  12.404
  143PROX   H2152452   9.690  11.101  12.505
  143PROX    C352453   9.628  11.289  12.437
  143PROX   H3152454   9.621  11.356  12.348
  143PROX   H3252455   9.523  11.280  12.472
  143PROX   H3352456   9.699  11.331  12.511
  144PROX    O152457   9.807  11.181  12.345
  144PROX    C152458   9.908  11.077  12.356
  144PROX   H1152459   9.973  11.086  12.445
  144PROX   H1352460   9.865  10.974  12.353
  144PROX    C252461   9.995  11.085  12.232
  144PROX   H2152462  10.041  11.185  12.248
  144PROX    C352463   9.914  11.079  12.099
  144PROX   H3152464   9.867  10.981  12.076
  144PROX   H3252465   9.838  11.159  12.089
  144PROX   H3352466   9.979  11.098  12.011
  145PROX    O152467  10.089  10.973  12.236
  145PROX    C152468  10.213  11.001  12.175
  145PROX   H1152469  10.240  10.915  12.110
  145PROX   H1352470  10.189  11.095  12.121
  145PROX    C252471  10.319  11.012  12.281
  145PROX   H2152472  10.340  10.912  12.323
  145PROX    C352473  10.280  11.100  12.401
  145PROX   H3152474  10.199  11.068  12.470
  145PROX   H3252475  10.367  11.117  12.468
  145PROX   H3352476  10.241  11.195  12.359
  146PROX    O152477  10.435  11.076  12.234
  146PROX    C152478  10.500  11.008  12.128
  146PROX   H1152479  10.507  10.902  12.160
  146PROX   H1352480  10.440  11.017  12.035
  146PROX    C252481  10.640  11.068  12.103
  146PROX   H2152482  10.699  11.076  12.197
  146PROX    C352483  10.626  11.216  12.047
  146PROX   H3152484  10.582  11.221  11.945
  146PROX   H3252485  10.567  11.282  12.115
  146PROX   H3352486  10.723  11.269  12.036
  147PROX    O152487  10.710  10.979  12.009
  147PROX    C152488  10.831  11.028  11.950
  147PROX   H1152489  10.804  11.090  11.862
  147PROX   H1352490  10.882  11.086  12.030
  147PROX    C252491  10.916  10.914  11.895
  147PROX   H2152492  10.889  10.820  11.948
  147PROX    C352493  11.069  10.932  11.917
  147PROX   H3152494  11.103  11.031  11.882
  147PROX   H3252495  11.103  10.924  12.022
  147PROX   H3352496  11.119  10.854  11.856
  148PROX    O152497  10.894  10.895  11.754
  148PROX    C152498  10.767  10.829  11.735
  148PROX   H1152499  10.757  10.731  11.787
  148PROX   H1352500  10.686  10.901  11.756
  148PROX    C252501  10.752  10.789  11.584
  148PROX   H2152502  10.831  10.715  11.560
  148PROX    C352503  10.769  10.911  11.497
  148PROX   H3152504  10.872  10.947  11.514
  148PROX   H3252505  10.765  10.882  11.390
  148PROX   H3352506  10.698  10.994  11.517
  149PROX    O152507  10.623  10.722  11.571
  149PROX    C152508  10.633  10.578  11.583
  149PROX   H1152509  10.690  10.545  11.493
  149PROX   H1352510  10.671  10.563  11.686
  149PROX    C252511  10.494  10.508  11.572
  149PROX   H2152512  10.453  10.547  11.477
  149PROX    C352513  10.397  10.542  11.692
  149PROX   H3152514  10.411  10.652  11.701
  149PROX   H3252515  10.294  10.503  11.676
  149PROX   H3352516  10.448  10.492  11.777
  150PROX    O152517  10.510  10.365  11.564
  150PROX    C152518  10.406  10.288  11.495
  150PROX   H1152519  10.320  10.350  11.462
  150PROX   H1352520  10.459  10.255  11.403
  150PROX    C252521  10.374  10.167  11.582
  150PROX   H2152522  10.331  10.201  11.679
  150PROX    C352523  10.500  10.089  11.631
  150PROX   H3152524  10.587  10.155  11.651
  150PROX   H3252525  10.480  10.027  11.721
  150PROX   H3352526  10.521  10.014  11.551
  151PROX    O152527  10.278  10.079  11.514
  151PROX    C152528  10.186  10.021  11.608
  151PROX   H1152529  10.241   9.968  11.689
  151PROX   H1352530  10.138  10.101  11.669
  151PROX    C252531  10.098   9.921  11.542
  151PROX   H2152532  10.039   9.871  11.621
  151PROX    C352533  10.175   9.803  11.482
  151PROX   H3152534  10.109   9.746  11.412
  151PROX   H3252535  10.260   9.832  11.417
  151PROX   H3352536  10.230   9.738  11.553
  152PROX    O152537   9.996   9.979  11.465
  152PROX    C152538  10.047  10.053  11.354
  152PROX   H1152539  10.053  10.163  11.368
  152PROX   H1352540  10.140  10.010  11.312
  152PROX    C252541   9.934  10.039  11.249
  152PROX   H2152542   9.848  10.100  11.284
  152PROX    C352543   9.899   9.894  11.220
  152PROX   H3152544   9.820   9.893  11.142
  152PROX   H3252545   9.990   9.844  11.181
  152PROX   H3352546   9.864   9.835  11.308
  153PROX    O152547   9.975  10.097  11.119
  153PROX    C152548   9.999  10.234  11.128
  153PROX   H1152549  10.070  10.266  11.207
  153PROX   H1352550  10.051  10.262  11.034
  153PROX    C252551   9.871  10.325  11.119
  153PROX   H2152552   9.796  10.295  11.195
  153PROX    C352553   9.789  10.315  10.992
  153PROX   H3152554   9.715  10.396  10.979
  153PROX   H3252555   9.851  10.324  10.900
  153PROX   H3352556   9.749  10.212  10.985
  154PROX    O152557   9.911  10.458  11.148
  154PROX    C152558   9.846  10.519  11.258
  154PROX   H1152559   9.870  10.622  11.224
  154PROX   H1352560   9.735  10.510  11.252
  154PROX    C252561   9.903  10.496  11.397
  154PROX   H2152562   9.842  10.556  11.468
  154PROX    C352563  10.051  10.530  11.416
  154PROX   H3152564  10.074  10.639  11.414
  154PROX   H3252565  10.084  10.483  11.511
  154PROX   H3352566  10.105  10.491  11.328
  155PROX    O152567   9.881  10.355  11.427
  155PROX    C152568   9.870  10.329  11.565
  155PROX   H1152569   9.975  10.318  11.599
  155PROX   H1352570   9.840  10.416  11.628
  155PROX    C252571   9.778  10.208  11.591
  155PROX   H2152572   9.799  10.131  11.514
  155PROX    C352573   9.620  10.244  11.574
  155PROX   H3152574   9.590  10.329  11.638
  155PROX   H3252575   9.596  10.265  11.468
  155PROX   H3352576   9.563  10.150  11.592
  156PROX    O152577   9.812  10.153  11.718
  156PROX    C152578   9.763  10.021  11.735
  156PROX   H1152579   9.654  10.019  11.760
  156PROX   H1352580   9.769   9.965  11.639
  156PROX    C252581   9.840   9.931  11.841
  156PROX   H2152582   9.941   9.917  11.796
  156PROX    C352583   9.767   9.801  11.853
  156PROX   H3152584   9.668   9.814  11.902
  156PROX   H3252585   9.739   9.754  11.757
  156PROX   H3352586   9.826   9.723  11.906
  157PROX    O152587   9.833   9.981  11.971
  157PROX    C152588   9.956   9.959  12.033
  157PROX   H1152589   9.948   9.953  12.143
  157PROX   H1352590   9.996   9.862  11.997
  157PROX    C252591  10.050  10.075  11.992
  157PROX   H2152592  10.063  10.064  11.882
  157PROX    C352593  10.185  10.056  12.062
  157PROX   H3152594  10.214   9.949  12.054
  157PROX   H3252595  10.267  10.108  12.008
  157PROX   H3352596  10.185  10.095  12.166
  158PROX    O152597   9.987  10.201  12.016
  158PROX    C152598  10.020  10.303  11.928
  158PROX   H1152599  10.130  10.318  11.938
  158PROX   H1352600  10.003  10.277  11.821
  158PROX    C252601   9.942  10.432  11.955
  158PROX   H2152602   9.958  10.471  12.057
  158PROX    C352603   9.791  10.413  11.943
  158PROX   H3152604   9.762  10.330  12.011
  158PROX   H3252605   9.734  10.502  11.978
  158PROX   H3352606   9.755  10.383  11.842
  159PROX    O152607   9.993  10.534  11.868
  159PROX    C152608   9.928  10.655  11.862
  159PROX   H1152609   9.833  10.649  11.805
  159PROX   H1352610   9.903  10.701  11.960
  159PROX    C252611  10.024  10.738  11.781
  159PROX   H2152612  10.047  10.686  11.686
  159PROX    C352613  10.155  10.755  11.861
  159PROX   H3152614  10.207  10.846  11.823
  159PROX   H3252615  10.152  10.766  11.971
  159PROX   H3352616  10.216  10.665  11.841
  160PROX    O152617   9.969  10.872  11.751
  160PROX    C152618  10.022  10.920  11.623
  160PROX   H1152619  10.045  11.028  11.623
  160PROX   H1352620  10.121  10.874  11.601
  160PROX    C252621   9.924  10.887  11.510
  160PROX   H2152622   9.899  10.779  11.510
  160PROX    C352623   9.980  10.919  11.366
  160PROX   H3152624   9.901  10.901  11.291
  160PROX   H3252625  10.001  11.028  11.358
  160PROX   H3352626  10.070  10.857  11.345
  161PROX    O152627   9.808  10.966  11.526
  161PROX    C152628   9.712  10.890  11.592
  161PROX   H1152629   9.663  10.815  11.526
  161PROX   H1352630   9.762  10.817  11.660
  161PROX    C252631   9.617  10.981  11.671
  161PROX   H2152632   9.564  11.050  11.601
  161PROX    C352633   9.685  11.068  11.781
  161PROX   H3152634   9.609  11.128  11.834
  161PROX   H3252635   9.730  11.000  11.856
  161PROX   H3352636   9.767  11.129  11.737
  162PROX    O152637   9.523  10.906  11.747
  162PROX    C152638   9.413  10.855  11.664
  162PROX   H1152639   9.404  10.919  11.574
  162PROX   H1352640   9.451  10.760  11.620
  162PROX    C252641   9.283  10.844  11.731
  162PROX   H2152642   9.283  10.783  11.824
  162PROX    C352643   9.184  10.776  11.637
  162PROX   H3152644   9.191  10.814  11.533
  162PROX   H3252645   9.214  10.670  11.649
  162PROX   H3352646   9.077  10.790  11.661
  163PROX    O152647   9.228  10.971  11.755
  163PROX    C152648   9.307  11.035  11.860
  163PROX   H1152649   9.359  10.952  11.913
  163PROX   H1352650   9.385  11.100  11.814
  163PROX    C252651   9.225  11.135  11.943
  163PROX   H2152652   9.145  11.190  11.889
  163PROX    C352653   9.316  11.247  12.006
  163PROX   H3152654   9.372  11.202  12.091
  163PROX   H3252655   9.398  11.270  11.934
  163PROX   H3352656   9.249  11.331  12.034
  164PROX    O152657   9.177  11.077  12.051
  164PROX    C152658   9.081  10.975  12.029
  164PROX   H1152659   9.100  10.908  11.942
  164PROX   H1352660   9.076  10.909  12.118
  164PROX    C252661   8.936  11.024  12.005
  164PROX   H2152662   8.927  11.083  11.911
  164PROX    C352663   8.885  11.113  12.125
  164PROX   H3152664   8.774  11.117  12.127
  164PROX   H3252665   8.920  11.070  12.221
  164PROX   H3352666   8.937  11.211  12.119
  165PROX    O152667   8.850  10.911  11.997
  165PROX    C152668   8.854  10.847  11.867
  165PROX   H1152669   8.769  10.882  11.805
  165PROX   H1352670   8.946  10.871  11.809
  165PROX    C252671   8.856  10.687  11.875
  165PROX   H2152672   8.751  10.650  11.875
  165PROX    C352673   8.921  10.638  12.003
  165PROX   H3152674   9.032  10.648  12.002
  165PROX   H3252675   8.887  10.705  12.085
  165PROX   H3352676   8.903  10.531  12.026
  166ETHO    O152677   8.934  10.620  11.772
  166ETHO    C152678   8.866  10.627  11.642
  166ETHO   H1152679   8.884  10.729  11.602
  166ETHO   H1352680   8.755  10.624  11.647
  166ETHO    C252681   8.921  10.529  11.527
  166ETHO   H2152682   9.028  10.556  11.514
  166ETHO   H2352683   8.869  10.558  11.433
  167ETHO    O152684   8.887  10.390  11.541
  167ETHO    C152685   8.963  10.328  11.636
  167ETHO   H1152686   9.067  10.329  11.597
  167ETHO   H1352687   8.967  10.392  11.727
  167ETHO    C252688   8.922  10.191  11.679
  167ETHO   H2152689   8.816  10.179  11.712
  167ETHO   H2352690   8.982  10.175  11.771
  168ETHO    O152691   8.941  10.106  11.562
  168ETHO    C152692   9.052  10.013  11.567
  168ETHO   H1152693   9.147  10.067  11.588
  168ETHO   H1352694   9.048   9.977  11.462
  168ETHO    C252695   9.019   9.898  11.664
  168ETHO   H2152696   8.974   9.936  11.759
  168ETHO   H2352697   9.115   9.853  11.697
  169ETHO    O152698   8.933   9.808  11.596
  169ETHO    C152699   8.908   9.692  11.667
  169ETHO   H1152700   9.003   9.651  11.708
  169ETHO   H1352701   8.840   9.717  11.752
  169ETHO    C252702   8.827   9.589  11.592
  169ETHO   H2152703   8.828   9.492  11.647
  169ETHO   H2352704   8.879   9.578  11.495
  170ETHO    O152705   8.691   9.611  11.573
  170ETHO    C152706   8.649   9.536  11.457
  170ETHO   H1152707   8.664   9.431  11.489
  170ETHO   H1352708   8.705   9.560  11.364
  170ETHO    C252709   8.497   9.544  11.421
  170ETHO   H2152710   8.480   9.488  11.326
  170ETHO   H2352711   8.462   9.648  11.405
  171ETHO    O152712   8.430   9.486  11.529
  171ETHO    C152713   8.287   9.490  11.518
  171ETHO   H1152714   8.255   9.590  11.481
  171ETHO   H1352715   8.262   9.414  11.441
  171ETHO    C252716   8.209   9.450  11.644
  171ETHO   H2152717   8.104   9.473  11.619
  171ETHO   H2352718   8.250   9.497  11.736
  172ETHO    O152719   8.224   9.310  11.657
  172ETHO    C152720   8.180   9.265  11.777
  172ETHO   H1152721   8.105   9.341  11.809
  172ETHO   H1352722   8.266   9.275  11.847
  172ETHO    C252723   8.136   9.119  11.780
  172ETHO   H2152724   8.116   9.091  11.886
  172ETHO   H2352725   8.222   9.058  11.745
  173ETHO    O152726   8.029   9.100  11.697
  173ETHO    C152727   7.900   9.118  11.758
  173ETHO   H1152728   7.895   9.042  11.839
  173ETHO   H1352729   7.887   9.216  11.808
  173ETHO    C252730   7.788   9.093  11.652
  173ETHO   H2152731   7.683   9.104  11.686
  173ETHO   H2352732   7.813   9.175  11.582
  174ETHO    O152733   7.798   8.964  11.594
  174ETHO    C152734   7.690   8.927  11.504
  174ETHO   H1152735   7.609   9.002  11.517
  174ETHO   H1352736   7.727   8.923  11.399
  174ETHO    C252737   7.633   8.786  11.538
  174ETHO   H2152738   7.717   8.717  11.562
  174ETHO   H2352739   7.574   8.738  11.456
  175ETHO    O152740   7.557   8.784  11.657
  175ETHO    C152741   7.447   8.698  11.645
  175ETHO   H1152742   7.376   8.720  11.727
  175ETHO   H1352743   7.394   8.727  11.552
  175ETHO    C252744   7.487   8.548  11.636
  175ETHO   H2152745   7.516   8.517  11.739
  175ETHO   H2352746   7.569   8.523  11.565
  176ETHO    O152747   7.377   8.471  11.599
  176ETHO    C152748   7.338   8.484  11.467
  176ETHO   H1152749   7.273   8.573  11.454
  176ETHO   H1352750   7.432   8.485  11.407
  176ETHO    C252751   7.252   8.366  11.411
  176ETHO   H2152752   7.304   8.269  11.396
  176ETHO   H2352753   7.218   8.389  11.308
  177ETHO    O152754   7.141   8.355  11.505
  177ETHO    C152755   7.024   8.438  11.479
  177ETHO   H1152756   7.052   8.546  11.472
  177ETHO   H1352757   6.964   8.431  11.571
  177ETHO    C252758   6.942   8.384  11.363
  177ETHO   H2152759   6.993   8.374  11.264
  177ETHO   H2352760   6.861   8.458  11.348
  178ETHO    O152761   6.885   8.257  11.387
  178ETHO    C152762   6.788   8.232  11.282
  178ETHO   H1152763   6.714   8.313  11.294
  178ETHO   H1352764   6.835   8.238  11.181
  178ETHO    C252765   6.711   8.098  11.305
  178ETHO   H2152766   6.611   8.118  11.262
  178ETHO   H2352767   6.706   8.083  11.415
  179ETHO    O152768   6.780   7.988  11.252
  179ETHO    C152769   6.722   7.865  11.296
  179ETHO   H1152770   6.620   7.878  11.339
  179ETHO   H1352771   6.773   7.830  11.387
  179ETHO    C252772   6.707   7.753  11.188
  179ETHO   H2152773   6.673   7.664  11.245
  179ETHO   H2352774   6.799   7.724  11.132
  180ETHO    O152775   6.612   7.791  11.086
  180ETHO    C152776   6.593   7.698  10.987
  180ETHO   H1152777   6.693   7.671  10.945
  180ETHO   H1352778   6.550   7.600  11.018
  180ETHO    C252779   6.513   7.747  10.865
  180ETHO   H2152780   6.529   7.687  10.773
  180ETHO   H2352781   6.552   7.850  10.851
  181ETHO    O152782   6.379   7.747  10.898
  181ETHO    C152783   6.310   7.644  10.823
  181ETHO   H1152784   6.370   7.553  10.846
  181ETHO   H1352785   6.311   7.673  10.716
  181ETHO    C252786   6.162   7.616  10.876
  181ETHO   H2152787   6.094   7.582  10.796
  181ETHO   H2352788   6.122   7.718  10.899
  182ETHO    O152789   6.143   7.526  10.988
  182ETHO    C152790   6.011   7.515  11.043
  182ETHO   H1152791   5.999   7.458  11.138
  182ETHO   H1352792   5.975   7.619  11.062
  182ETHO    C252793   5.911   7.458  10.943
  182ETHO   H2152794   5.893   7.517  10.851
  182ETHO   H2352795   5.815   7.465  11.000
  183ETHO    O152796   5.950   7.320  10.921
  183ETHO    C152797   5.875   7.257  10.823
  183ETHO   H1152798   5.936   7.171  10.789
  183ETHO   H1352799   5.864   7.319  10.732
  183ETHO    C252800   5.749   7.223  10.901
  183ETHO   H2152801   5.692   7.313  10.931
  183ETHO   H2352802   5.782   7.171  10.993
  184ETHO    O152803   5.657   7.131  10.844
  184ETHO    C152804   5.562   7.087  10.938
  184ETHO   H1152805   5.615   7.027  11.015
  184ETHO   H1352806   5.517   7.180  10.980
  184ETHO    C252807   5.463   6.982  10.874
  184ETHO   H2152808   5.416   7.038  10.790
  184ETHO   H2352809   5.400   6.964  10.963
  185ETHO    O152810   5.510   6.862  10.809
  185ETHO    C152811   5.401   6.793  10.748
  185ETHO   H1152812   5.343   6.745  10.829
  185ETHO   H1352813   5.333   6.867  10.700
  185ETHO    C252814   5.440   6.681  10.653
  185ETHO   H2152815   5.357   6.608  10.638
  185ETHO   H2352816   5.532   6.633  10.695
  186ETHO    O152817   5.471   6.719  10.521
  186ETHO    C152818   5.511   6.605  10.449
  186ETHO   H1152819   5.613   6.580  10.486
  186ETHO   H1352820   5.438   6.522  10.455
  186ETHO    C252821   5.521   6.626  10.295
  186ETHO   H2152822   5.575   6.721  10.275
  186ETHO   H2352823   5.415   6.636  10.264
  187ETHO    O152824   5.582   6.514  10.235
  187ETHO    C152825   5.610   6.529  10.096
  187ETHO   H1152826   5.534   6.592  10.044
  187ETHO   H1352827   5.705   6.582  10.075
  187ETHO    C252828   5.608   6.399  10.017
  187ETHO   H2152829   5.683   6.330  10.062
  187ETHO   H2352830   5.644   6.414   9.913
  188ETHO    O152831   5.480   6.334  10.023
  188ETHO    C152832   5.472   6.200   9.975
  188ETHO   H1152833   5.397   6.140  10.030
  188ETHO   H1352834   5.575   6.157   9.979
  188ETHO    C252835   5.420   6.192   9.830
  188ETHO   H2152836   5.427   6.089   9.789
  188ETHO   H2352837   5.477   6.265   9.768
  189ETHO    O152838   5.284   6.212   9.826
  189ETHO    C152839   5.227   6.199   9.697
  189ETHO   H1152840   5.126   6.243   9.710
  189ETHO   H1352841   5.287   6.267   9.632
  189ETHO    C252842   5.221   6.059   9.639
  189ETHO   H2152843   5.319   6.009   9.650
  189ETHO   H2352844   5.196   6.057   9.530
  190ETHO    O152845   5.127   5.981   9.713
  190ETHO    C152846   5.042   5.895   9.632
  190ETHO   H1152847   5.100   5.854   9.547
  190ETHO   H1352848   4.963   5.961   9.590
  190ETHO    C252849   4.984   5.790   9.724
  190ETHO   H2152850   5.066   5.745   9.785
  190ETHO   H2352851   4.954   5.700   9.665
  191ETHO    O152852   4.881   5.833   9.807
  191ETHO    C152853   4.775   5.740   9.829
  191ETHO   H1152854   4.822   5.639   9.824
  191ETHO   H1352855   4.736   5.755   9.931
  191ETHO    C252856   4.656   5.767   9.739
  191ETHO   H2152857   4.586   5.682   9.722
  191ETHO   H2352858   4.695   5.796   9.639
  192ETHO    O152859   4.592   5.886   9.768
  192ETHO    C152860   4.466   5.881   9.713
  192ETHO   H1152861   4.414   5.797   9.764
  192ETHO   H1352862   4.466   5.864   9.603
  192ETHO    C252863   4.382   6.009   9.739
  192ETHO   H2152864   4.392   6.034   9.847
  192ETHO   H2352865   4.281   5.965   9.726
  193ETHO    O152866   4.408   6.136   9.672
  193ETHO    C152867   4.287   6.218   9.667
  193ETHO   H1152868   4.204   6.169   9.611
  193ETHO   H1352869   4.251   6.228   9.772
  193ETHO    C252870   4.302   6.362   9.610
  193ETHO   H2152871   4.202   6.398   9.576
  193ETHO   H2352872   4.358   6.368   9.514
  194ETHO    O152873   4.356   6.447   9.712
  194ETHO    C152874   4.348   6.590   9.676
  194ETHO   H1152875   4.240   6.605   9.658
  194ETHO   H1352876   4.414   6.604   9.588
  194ETHO    C252877   4.408   6.668   9.801
  194ETHO   H2152878   4.343   6.658   9.891
  194ETHO   H2352879   4.398   6.772   9.763
  195ETHO    O152880   4.542   6.651   9.846
  195ETHO    C152881   4.590   6.764   9.915
  195ETHO   H1152882   4.639   6.828   9.838
  195ETHO   H1352883   4.505   6.820   9.959
  195ETHO    C252884   4.687   6.738  10.033
  195ETHO   H2152885   4.646   6.650  10.087
  195ETHO   H2352886   4.699   6.832  10.090
  196ETHO    O152887   4.818   6.711   9.986
  196ETHO    C152888   4.907   6.722  10.093
  196ETHO   H1152889   4.897   6.819  10.145
  196ETHO   H1352890   4.879   6.645  10.168
  196ETHO    C252891   5.052   6.700  10.061
  196ETHO   H2152892   5.059   6.613   9.992
  196ETHO   H2352893   5.116   6.660  10.143
  197ETHO    O152894   5.111   6.815  10.004
  197ETHO    C152895   5.086   6.828   9.865
  197ETHO   H1152896   5.139   6.750   9.807
  197ETHO   H1352897   4.979   6.834   9.837
  197ETHO    C252898   5.149   6.965   9.817
  197ETHO   H2152899   5.134   6.980   9.708
  197ETHO   H2352900   5.259   6.953   9.825
  198ETHO    O152901   5.106   7.084   9.884
  198ETHO    C152902   4.972   7.112   9.871
  198ETHO   H1152903   4.933   7.100   9.768
  198ETHO   H1352904   4.920   7.034   9.931
  198ETHO    C252905   4.948   7.256   9.925
  198ETHO   H2152906   4.848   7.292   9.892
  198ETHO   H2352907   5.019   7.327   9.877
  199ETHO    O152908   4.974   7.278  10.067
  199ETHO    C152909   4.868   7.227  10.143
  199ETHO   H1152910   4.916   7.162  10.219
  199ETHO   H1352911   4.800   7.163  10.082
  199ETHO    C252912   4.781   7.339  10.195
  199ETHO   H2152913   4.694   7.296  10.249
  199ETHO   H2352914   4.744   7.378  10.098
  200ETHO    O152915   4.861   7.420  10.283
  200ETHO    C152916   4.789   7.535  10.330
  200ETHO   H1152917   4.773   7.600  10.242
  200ETHO   H1352918   4.694   7.514  10.384
  200ETHO    C252919   4.869   7.627  10.423
  200ETHO   H2152920   4.873   7.581  10.524
  200ETHO   H2352921   4.810   7.721  10.427
  201ETHO    O152922   5.000   7.659  10.368
  201ETHO    C152923   5.098   7.570  10.418
  201ETHO   H1152924   5.200   7.582  10.375
  201ETHO   H1352925   5.073   7.462  10.411
  201ETHO    C252926   5.127   7.617  10.558
  201ETHO   H2152927   5.181   7.538  10.615
  201ETHO   H2352928   5.042   7.646  10.623
  202ETHO    O152929   5.212   7.733  10.556
  202ETHO    C152930   5.275   7.754  10.680
  202ETHO   H1152931   5.195   7.778  10.753
  202ETHO   H1352932   5.320   7.655  10.699
  202ETHO    C252933   5.380   7.872  10.685
  202ETHO   H2152934   5.404   7.886  10.792
  202ETHO   H2352935   5.324   7.961  10.651
  203ETHO    O152936   5.500   7.843  10.620
  203ETHO    C152937   5.493   7.883  10.484
  203ETHO   H1152938   5.482   7.993  10.490
  203ETHO   H1352939   5.411   7.834  10.427
  203ETHO    C252940   5.619   7.854  10.400
  203ETHO   H2152941   5.703   7.905  10.452
  203ETHO   H2352942   5.605   7.899  10.300
  204ETHO    O152943   5.649   7.714  10.387
  204ETHO    C152944   5.774   7.701  10.329
  204ETHO   H1152945   5.777   7.768  10.240
  204ETHO   H1352946   5.853   7.728  10.402
  204ETHO    C252947   5.789   7.557  10.285
  204ETHO   H2152948   5.768   7.483  10.364
  204ETHO   H2352949   5.895   7.539  10.258
  205ETHO    O152950   5.714   7.508  10.178
  205ETHO    C152951   5.769   7.543  10.051
  205ETHO   H1152952   5.874   7.508  10.045
  205ETHO   H1352953   5.774   7.654  10.045
  205ETHO    C252954   5.695   7.470   9.935
  205ETHO   H2152955   5.743   7.523   9.850
  205ETHO   H2352956   5.586   7.490   9.938
  206ETHO    O152957   5.721   7.329   9.955
  206ETHO    C152958   5.696   7.262   9.839
  206ETHO   H1152959   5.767   7.304   9.765
  206ETHO   H1352960   5.741   7.161   9.852
  206ETHO    C252961   5.550   7.242   9.797
  206ETHO   H2152962   5.544   7.144   9.745
  206ETHO   H2352963   5.491   7.229   9.890
  207ETHO    O152964   5.489   7.321   9.704
  207ETHO    C152965   5.349   7.339   9.720
  207ETHO   H1152966   5.335   7.400   9.812
  207ETHO   H1352967   5.306   7.237   9.737
  207ETHO    C252968   5.288   7.412   9.604
  207ETHO   H2152969   5.351   7.499   9.573
  207ETHO   H2352970   5.192   7.456   9.640
  208ETHO    O152971   5.259   7.322   9.499
  208ETHO    C152972   5.215   7.393   9.386
  208ETHO   H1152973   5.113   7.428   9.412
  208ETHO   H1352974   5.270   7.486   9.360
  208ETHO    C252975   5.201   7.297   9.269
  208ETHO   H2152976   5.136   7.213   9.302
  208ETHO   H2352977   5.301   7.249   9.259
  209ETHO    O152978   5.143   7.354   9.147
  209ETHO    C152979   5.121   7.251   9.057
  209ETHO   H1152980   5.038   7.186   9.093
  209ETHO   H1352981   5.213   7.191   9.042
  209ETHO    C252982   5.087   7.298   8.914
  209ETHO   H2152983   5.060   7.211   8.850
  209ETHO   H2352984   5.177   7.338   8.863
  210ETHO    O152985   4.976   7.392   8.915
  210ETHO    C152986   4.957   7.445   8.785
  210ETHO   H1152987   4.918   7.549   8.791
  210ETHO   H1352988   5.057   7.446   8.737
  210ETHO    C252989   4.850   7.376   8.699
  210ETHO   H2152990   4.849   7.424   8.599
  210ETHO   H2352991   4.753   7.384   8.752
  211ETHO    O152992   4.876   7.237   8.679
  211ETHO    C152993   4.841   7.202   8.544
  211ETHO   H1152994   4.739   7.232   8.513
  211ETHO   H1352995   4.913   7.255   8.478
  211ETHO    C252996   4.873   7.057   8.519
  211ETHO   H2152997   4.975   7.025   8.549
  211ETHO   H2352998   4.867   7.049   8.408
  212ETHO    O152999   4.766   6.980   8.565
  212ETHO    C153000   4.805   6.844   8.553
  212ETHO   H1153001   4.896   6.827   8.490
  212ETHO   H1353002   4.846   6.820   8.654
  212ETHO    C253003   4.692   6.752   8.513
  212ETHO   H2153004   4.604   6.774   8.576
  212ETHO   H2353005   4.719   6.645   8.527
  213ETHO    O153006   4.671   6.781   8.376
  213ETHO    C153007   4.572   6.692   8.327
  213ETHO   H1153008   4.623   6.608   8.275
  213ETHO   H1353009   4.512   6.641   8.405
  213ETHO    C253010   4.477   6.756   8.223
  213ETHO   H2153011   4.463   6.864   8.248
  213ETHO   H2353012   4.382   6.699   8.212
  214ETHO    O153013   4.533   6.759   8.097
  214ETHO    C153014   4.457   6.837   8.009
  214ETHO   H1153015   4.478   6.943   8.038
  214ETHO   H1353016   4.349   6.826   8.031
  214ETHO    C253017   4.498   6.837   7.861
  214ETHO   H2153018   4.605   6.809   7.852
  214ETHO   H2353019   4.496   6.941   7.820
  215ETHO    O153020   4.405   6.760   7.785
  215ETHO    C153021   4.413   6.617   7.814
  215ETHO   H1153022   4.514   6.577   7.793
  215ETHO   H1353023   4.399   6.597   7.923
  215ETHO    C253024   4.313   6.551   7.716
  215ETHO   H2153025   4.329   6.442   7.702
  215ETHO   H2353026   4.330   6.602   7.618
  216ETHO    O153027   4.186   6.572   7.769
  216ETHO    C153028   4.085   6.492   7.706
  216ETHO   H1153029   4.113   6.384   7.708
  216ETHO   H1353030   4.085   6.519   7.598
  216ETHO    C253031   3.949   6.508   7.764
  216ETHO   H2153032   3.962   6.519   7.874
  216ETHO   H2353033   3.897   6.414   7.736
  217ETHO    O153034   3.893   6.619   7.691
  217ETHO    C153035   3.777   6.665   7.751
  217ETHO   H1153036   3.692   6.596   7.729
  217ETHO   H1353037   3.803   6.687   7.857
  217ETHO    C253038   3.732   6.802   7.691
  217ETHO   H2153039   3.630   6.807   7.734
  217ETHO   H2353040   3.721   6.805   7.580
  218ETHO    O153041   3.800   6.925   7.730
  218ETHO    C153042   3.899   6.961   7.636
  218ETHO   H1153043   3.841   6.972   7.542
  218ETHO   H1353044   3.965   6.874   7.615
  218ETHO    C253045   3.972   7.092   7.654
  218ETHO   H2153046   3.894   7.170   7.665
  218ETHO   H2353047   4.030   7.115   7.562
  219ETHO    O153048   4.042   7.097   7.775
  219ETHO    C153049   4.088   7.229   7.808
  219ETHO   H1153050   4.140   7.280   7.724
  219ETHO   H1353051   4.005   7.287   7.853
  219ETHO    C253052   4.199   7.205   7.909
  219ETHO   H2153053   4.248   7.303   7.924
  219ETHO   H2353054   4.274   7.135   7.867
  220ETHO    O153055   4.160   7.155   8.035
  220ETHO    C153056   4.262   7.150   8.137
  220ETHO   H1153057   4.300   7.254   8.145
  220ETHO   H1353058   4.353   7.094   8.106
  220ETHO    C253059   4.203   7.109   8.279
  220ETHO   H2153060   4.154   7.010   8.263
  220ETHO   H2353061   4.118   7.179   8.293
  221ETHO    O153062   4.295   7.111   8.375
  221ETHO    C153063   4.249   7.023   8.475
  221ETHO   H1153064   4.249   6.921   8.430
  221ETHO   H1353065   4.319   7.023   8.561
  221ETHO    C253066   4.113   7.052   8.546
  221ETHO   H2153067   4.090   6.958   8.601
  221ETHO   H2353068   4.023   7.073   8.484
  222ETHO    O153069   4.124   7.164   8.629
  222ETHO    C153070   4.013   7.174   8.719
  222ETHO   H1153071   3.921   7.142   8.665
  222ETHO   H1353072   4.030   7.107   8.806
  222ETHO    C253073   3.985   7.312   8.772
  222ETHO   H2153074   3.884   7.312   8.819
  222ETHO   H2353075   3.985   7.376   8.681
  223ETHO    O153076   4.069   7.361   8.879
  223ETHO    C153077   4.039   7.496   8.914
  223ETHO   H1153078   4.051   7.562   8.825
  223ETHO   H1353079   3.930   7.503   8.935
  223ETHO    C253080   4.117   7.551   9.034
  223ETHO   H2153081   4.122   7.473   9.113
  223ETHO   H2353082   4.070   7.640   9.081
  224ETHO    O153083   4.255   7.575   9.009
  224ETHO    C153084   4.320   7.609   9.129
  224ETHO   H1153085   4.273   7.704   9.163
  224ETHO   H1353086   4.307   7.527   9.203
  224ETHO    C253087   4.474   7.632   9.137
  224ETHO   H2153088   4.489   7.667   9.241
  224ETHO   H2353089   4.502   7.718   9.074
  225ETHO    O153090   4.539   7.508   9.115
  225ETHO    C153091   4.678   7.535   9.142
  225ETHO   H1153092   4.685   7.610   9.224
  225ETHO   H1353093   4.717   7.592   9.054
  225ETHO    C253094   4.760   7.403   9.170
  225ETHO   H2153095   4.870   7.412   9.156
  225ETHO   H2353096   4.726   7.326   9.098
  226ETHO    O153097   4.748   7.353   9.301
  226ETHO    C153098   4.830   7.237   9.321
  226ETHO   H1153099   4.823   7.175   9.229
  226ETHO   H1353100   4.936   7.266   9.333
  226ETHO    C253101   4.803   7.149   9.442
  226ETHO   H2153102   4.694   7.131   9.454
  226ETHO   H2353103   4.844   7.186   9.538
  227ETHO    O153104   4.851   7.014   9.428
  227ETHO    C153105   4.814   6.934   9.544
  227ETHO   H1153106   4.706   6.954   9.555
  227ETHO   H1353107   4.865   6.973   9.635
  227ETHO    C253108   4.835   6.781   9.534
  227ETHO   H2153109   4.791   6.744   9.629
  227ETHO   H2353110   4.941   6.750   9.532
  228ETHO    O153111   4.774   6.732   9.419
  228ETHO    C153112   4.785   6.589   9.411
  228ETHO   H1153113   4.892   6.560   9.400
  228ETHO   H1353114   4.741   6.550   9.505
  228ETHO    C253115   4.708   6.545   9.287
  228ETHO   H2153116   4.725   6.437   9.269
  228ETHO   H2353117   4.740   6.602   9.198
  229ETHO    O153118   4.566   6.566   9.297
  229ETHO    C153119   4.504   6.532   9.169
  229ETHO   H1153120   4.395   6.514   9.177
  229ETHO   H1353121   4.552   6.435   9.145
  229ETHO    C253122   4.518   6.623   9.038
  229ETHO   H2153123   4.618   6.598   8.998
  229ETHO   H2353124   4.525   6.726   9.078
  230ETHO    O153125   4.425   6.592   8.932
  230ETHO    C153126   4.418   6.704   8.845
  230ETHO   H1153127   4.470   6.800   8.868
  230ETHO   H1353128   4.464   6.658   8.755
  230ETHO    C253129   4.269   6.729   8.803
  230ETHO   H2153130   4.222   6.635   8.769
  230ETHO   H2353131   4.282   6.787   8.708
  231ETHO    O153132   4.201   6.795   8.908
  231ETHO    C153133   4.073   6.804   8.879
  231ETHO   H1153134   4.035   6.703   8.853
  231ETHO   H1353135   4.061   6.886   8.804
  231ETHO    C253136   3.987   6.836   9.007
  231ETHO   H2153137   4.028   6.935   9.037
  231ETHO   H2353138   4.008   6.752   9.077
  232ETHO    O153139   3.846   6.854   8.972
  232ETHO    C153140   3.779   6.958   9.041
  232ETHO   H1153141   3.797   6.953   9.151
  232ETHO   H1353142   3.818   7.057   9.010
  232ETHO    C253143   3.628   6.947   9.018
  232ETHO   H2153144   3.607   6.910   8.916
  232ETHO   H2353145   3.589   7.051   9.021
  233ETHO    O153146   3.556   6.873   9.118
  233ETHO    C153147   3.416   6.894   9.097
  233ETHO   H1153148   3.383   7.000   9.097
  233ETHO   H1353149   3.400   6.876   8.988
  233ETHO    C253150   3.332   6.816   9.209
  233ETHO   H2153151   3.227   6.847   9.194
  233ETHO   H2353152   3.378   6.837   9.308
  234ETHO    O153153   3.345   6.681   9.178
  234ETHO    C153154   3.252   6.602   9.235
  234ETHO   H1153155   3.302   6.503   9.241
  234ETHO   H1353156   3.243   6.637   9.341
  234ETHO    C253157   3.128   6.610   9.150
  234ETHO   H2153158   3.100   6.713   9.119
  234ETHO   H2353159   3.040   6.574   9.207
  235ETHO    O153160   3.146   6.532   9.037
  235ETHO    C153161   3.031   6.507   8.951
  235ETHO   H1153162   2.953   6.456   9.012
  235ETHO   H1353163   2.987   6.601   8.910
  235ETHO    C253164   3.074   6.409   8.837
  235ETHO   H2153165   2.990   6.375   8.773
  235ETHO   H2353166   3.109   6.318   8.890
  236ETHO    O153167   3.168   6.469   8.746
  236ETHO    C153168   3.236   6.375   8.657
  236ETHO   H1153169   3.173   6.347   8.570
  236ETHO   H1353170   3.254   6.285   8.719
  236ETHO    C253171   3.371   6.430   8.613
  236ETHO   H2153172   3.438   6.359   8.560
  236ETHO   H2353173   3.428   6.477   8.696
  237ETHO    O153174   3.345   6.539   8.525
  237ETHO    C153175   3.465   6.619   8.499
  237ETHO   H1153176   3.475   6.684   8.589
  237ETHO   H1353177   3.555   6.560   8.474
  237ETHO    C253178   3.415   6.711   8.380
  237ETHO   H2153179   3.364   6.650   8.303
  237ETHO   H2353180   3.503   6.765   8.339
  238ETHO    O153181   3.327   6.810   8.433
  238ETHO    C153182   3.248   6.881   8.330
  238ETHO   H1153183   3.214   6.814   8.248
  238ETHO   H1353184   3.313   6.947   8.270
  238ETHO    C253185   3.131   6.961   8.391
  238ETHO   H2153186   3.079   7.031   8.322
  238ETHO   H2353187   3.161   7.022   8.479
  239ETHO    O153188   3.030   6.869   8.427
  239ETHO    C153189   3.043   6.806   8.557
  239ETHO   H1153190   3.130   6.737   8.545
  239ETHO   H1353191   3.062   6.879   8.638
  239ETHO    C253192   2.928   6.712   8.597
  239ETHO   H2153193   2.915   6.706   8.707
  239ETHO   H2353194   2.836   6.755   8.553
  240ETHO    O153195   2.936   6.584   8.540
  240ETHO    C153196   2.820   6.500   8.564
  240ETHO   H1153197   2.719   6.544   8.550
  240ETHO   H1353198   2.820   6.480   8.673
  240ETHO    C253199   2.820   6.359   8.502
  240ETHO   H2153200   2.848   6.364   8.395
  240ETHO   H2353201   2.719   6.313   8.499
  241ETHO    O153202   2.903   6.272   8.575
  241ETHO    C153203   2.901   6.140   8.522
  241ETHO   H1153204   2.798   6.099   8.534
  241ETHO   H1353205   2.916   6.143   8.412
  241ETHO    C253206   3.000   6.053   8.598
  241ETHO   H2153207   3.106   6.067   8.568
  241ETHO   H2353208   2.990   5.950   8.556
  242ETHO    O153209   2.976   6.044   8.734
  242ETHO    C153210   3.082   5.974   8.793
  242ETHO   H1153211   3.182   6.004   8.757
  242ETHO   H1353212   3.066   5.870   8.755
  242ETHO    C253213   3.088   5.967   8.947
  242ETHO   H2153214   3.094   6.074   8.976
  242ETHO   H2353215   3.177   5.913   8.986
  243ETHO    O153216   2.966   5.901   8.993
  243ETHO    C153217   2.950   5.924   9.139
  243ETHO   H1153218   3.039   5.898   9.200
  243ETHO   H1353219   2.920   6.030   9.157
  243ETHO    C253220   2.841   5.841   9.198
  243ETHO   H2153221   2.745   5.876   9.155
  243ETHO   H2353222   2.841   5.852   9.308
  244ETHO    O153223   2.854   5.703   9.161
  244ETHO    C153224   2.764   5.617   9.226
  244ETHO   H1153225   2.773   5.636   9.335
  244ETHO   H1353226   2.788   5.511   9.205
  244ETHO    C253227   2.613   5.634   9.192
  244ETHO   H2153228   2.585   5.740   9.211
  244ETHO   H2353229   2.544   5.582   9.261
  245ETHO    O153230   2.589   5.605   9.059
  245ETHO    C153231   2.451   5.609   9.035
  245ETHO   H1153232   2.409   5.514   9.074
  245ETHO   H1353233   2.394   5.696   9.075
  245ETHO    C253234   2.430   5.605   8.882
  245ETHO   H2153235   2.323   5.588   8.858
  245ETHO   H2353236   2.482   5.518   8.837
  246ETHO    O153237   2.471   5.727   8.827
  246ETHO    C153238   2.421   5.735   8.694
  246ETHO   H1153239   2.316   5.699   8.684
  246ETHO   H1353240   2.487   5.667   8.637
  246ETHO    C253241   2.421   5.884   8.641
  246ETHO   H2153242   2.416   5.883   8.530
  246ETHO   H2353243   2.516   5.929   8.676
  247ETHO    O153244   2.312   5.965   8.699
  247ETHO    C153245   2.328   6.098   8.647
  247ETHO   H1153246   2.429   6.134   8.676
  247ETHO   H1353247   2.327   6.109   8.537
  247ETHO    C253248   2.218   6.188   8.706
  247ETHO   H2153249   2.220   6.179   8.817
  247ETHO   H2353250   2.249   6.291   8.681
  248ETHO    O153251   2.094   6.145   8.644
  248ETHO    C153252   1.990   6.231   8.672
  248ETHO   H1153253   2.021   6.337   8.657
  248ETHO   H1353254   1.911   6.210   8.597
  248ETHO    C253255   1.944   6.225   8.816
  248ETHO   H2153256   1.883   6.317   8.831
  248ETHO   H2353257   2.020   6.238   8.896
  249ETHO    O153258   1.872   6.104   8.833
  249ETHO    C153259   1.788   6.108   8.943
  249ETHO   H1153260   1.764   6.003   8.970
  249ETHO   H1353261   1.842   6.146   9.032
  249ETHO    C253262   1.646   6.182   8.937
  249ETHO   H2153263   1.578   6.139   9.013
  249ETHO   H2353264   1.598   6.151   8.842
  250ETHO    O153265   1.664   6.325   8.931
  250ETHO    C153266   1.528   6.384   8.929
  250ETHO   H1153267   1.475   6.354   8.835
  250ETHO   H1353268   1.465   6.359   9.017
  250ETHO    C253269   1.543   6.538   8.933
  250ETHO   H2153270   1.458   6.595   8.891
  250ETHO   H2353271   1.626   6.577   8.870
  251ETHO    O153272   1.561   6.591   9.061
  251ETHO    C153273   1.561   6.733   9.061
  251ETHO   H1153274   1.457   6.768   9.044
  251ETHO   H1353275   1.622   6.773   8.978
  251ETHO    C253276   1.620   6.788   9.188
  251ETHO   H2153277   1.574   6.739   9.276
  251ETHO   H2353278   1.601   6.898   9.186
  252ETHO    O153279   1.762   6.783   9.180
  252ETHO    C153280   1.819   6.822   9.309
  252ETHO   H1153281   1.791   6.930   9.314
  252ETHO   H1353282   1.783   6.762   9.395
  252ETHO    C253283   1.971   6.838   9.292
  252ETHO   H2153284   2.001   6.932   9.342
  252ETHO   H2353285   2.011   6.842   9.188
  253ETHO    O153286   2.039   6.727   9.363
  253ETHO    C153287   2.067   6.603   9.294
  253ETHO   H1153288   2.000   6.597   9.205
  253ETHO   H1353289   2.036   6.519   9.359
  253ETHO    C253290   2.213   6.575   9.254
  253ETHO   H2153291   2.254   6.649   9.183
  253ETHO   H2353292   2.212   6.483   9.191
  254ETHO    O153293   2.307   6.561   9.356
  254ETHO    C153294   2.443   6.566   9.308
  254ETHO   H1153295   2.481   6.471   9.266
  254ETHO   H1353296   2.449   6.637   9.224
  254ETHO    C253297   2.528   6.593   9.426
  254ETHO   H2153298   2.627   6.568   9.383
  254ETHO   H2353299   2.512   6.540   9.522
  255ETHO    O153300   2.542   6.741   9.429
  255ETHO    C153301   2.631   6.776   9.540
  255ETHO   H1153302   2.725   6.722   9.516
  255ETHO   H1353303   2.593   6.738   9.637
  255ETHO    C253304   2.652   6.923   9.552
  255ETHO   H2153305   2.711   6.923   9.646
  255ETHO   H2353306   2.557   6.977   9.571
  256ETHO    O153307   2.726   6.996   9.454
  256ETHO    C153308   2.755   7.131   9.498
  256ETHO   H1153309   2.775   7.194   9.409
  256ETHO   H1353310   2.669   7.184   9.543
  256ETHO    C253311   2.866   7.148   9.599
  256ETHO   H2153312   2.832   7.116   9.700
  256ETHO   H2353313   2.880   7.258   9.611
  257ETHO    O153314   2.993   7.074   9.576
  257ETHO    C153315   3.068   7.116   9.459
  257ETHO   H1153316   3.006   7.120   9.367
  257ETHO   H1353317   3.139   7.032   9.442
  257ETHO    C253318   3.142   7.252   9.471
  257ETHO   H2153319   3.224   7.257   9.397
  257ETHO   H2353320   3.188   7.265   9.571
  258ETHO    O153321   3.056   7.367   9.450
  258ETHO    C153322   3.048   7.387   9.309
  258ETHO   H1153323   3.146   7.433   9.283
  258ETHO   H1353324   3.035   7.294   9.250
  258ETHO    C253325   2.939   7.484   9.256
  258ETHO   H2153326   2.949   7.497   9.146
  258ETHO   H2353327   2.937   7.584   9.303
  259ETHO    O153328   2.816   7.417   9.287
  259ETHO    C153329   2.706   7.487   9.224
  259ETHO   H1153330   2.701   7.590   9.266
  259ETHO   H1353331   2.734   7.499   9.117
  259ETHO    C253332   2.572   7.410   9.231
  259ETHO   H2153333   2.490   7.462   9.176
  259ETHO   H2353334   2.550   7.399   9.339
  260ETHO    O153335   2.587   7.286   9.163
  260ETHO    C153336   2.479   7.201   9.205
  260ETHO   H1153337   2.470   7.198   9.316
  260ETHO   H1353338   2.385   7.230   9.153
  260ETHO    C253339   2.522   7.055   9.164
  260ETHO   H2153340   2.451   6.982   9.208
  260ETHO   H2353341   2.623   7.024   9.200
  261ETHO    O153342   2.526   7.031   9.019
  261ETHO    C153343   2.452   6.915   8.978
  261ETHO   H1153344   2.505   6.861   8.897
  261ETHO   H1353345   2.461   6.843   9.062
  261ETHO    C253346   2.300   6.932   8.946
  261ETHO   H2153347   2.246   7.001   9.015
  261ETHO   H2353348   2.247   6.835   8.956
  262ETHO    O153349   2.283   6.972   8.810
  262ETHO    C153350   2.159   6.916   8.749
  262ETHO   H1153351   2.070   6.959   8.801
  262ETHO   H1353352   2.155   6.805   8.745
  262ETHO    C253353   2.145   6.971   8.606
  262ETHO   H2153354   2.168   7.079   8.598
  262ETHO   H2353355   2.041   6.954   8.572
  263ETHO    O153356   2.227   6.908   8.511
  263ETHO    C153357   2.187   6.943   8.380
  263ETHO   H1153358   2.180   7.053   8.374
  263ETHO   H1353359   2.085   6.903   8.358
  263ETHO    C253360   2.286   6.888   8.280
  263ETHO   H2153361   2.256   6.901   8.173
  263ETHO   H2353362   2.306   6.781   8.297
  264ETHO    O153363   2.403   6.969   8.283
  264ETHO    C153364   2.499   6.921   8.191
  264ETHO   H1153365   2.571   7.004   8.177
  264ETHO   H1353366   2.452   6.898   8.093
  264ETHO    C253367   2.585   6.794   8.237
  264ETHO   H2153368   2.517   6.707   8.243
  264ETHO   H2353369   2.626   6.803   8.340
  265ETHO    O153370   2.682   6.762   8.133
  265ETHO    C153371   2.753   6.643   8.160
  265ETHO   H1153372   2.849   6.643   8.103
  265ETHO   H1353373   2.782   6.629   8.266
  265ETHO    C253374   2.670   6.522   8.115
  265ETHO   H2153375   2.641   6.547   8.010
  265ETHO   H2353376   2.571   6.509   8.164
  265ETHO    OZ53377   2.743   6.405   8.124
  265ETHO   HZ153378   2.699   6.338   8.072
    1ETHO    O153379  17.515   7.785  10.418
    1ETHO   HO153380  17.519   7.881  10.429
    1ETHO    C153381  17.632   7.735  10.488
    1ETHO   H1153382  17.663   7.811  10.563
    1ETHO   H1353383  17.713   7.702  10.420
    1ETHO    C253384  17.596   7.617  10.574
    1ETHO   H2153385  17.494   7.637  10.613
    1ETHO   H2353386  17.662   7.605  10.663
    2ETHO    O153387  17.588   7.486  10.506
    2ETHO    C153388  17.565   7.394  10.605
    2ETHO   H1153389  17.596   7.291  10.579
    2ETHO   H1353390  17.621   7.416  10.699
    2ETHO    C253391  17.419   7.382  10.640
    2ETHO   H2153392  17.378   7.471  10.692
    2ETHO   H2353393  17.400   7.297  10.709
    3ETHO    O153394  17.342   7.367  10.525
    3ETHO    C153395  17.214   7.310  10.561
    3ETHO   H1153396  17.149   7.353  10.482
    3ETHO   H1353397  17.184   7.360  10.655
    3ETHO    C253398  17.211   7.160  10.547
    3ETHO   H2153399  17.153   7.112  10.629
    3ETHO   H2353400  17.316   7.127  10.558
    4ETHO    O153401  17.157   7.113  10.425
    4ETHO    C153402  17.167   6.971  10.421
    4ETHO   H1153403  17.264   6.940  10.465
    4ETHO   H1353404  17.089   6.924  10.484
    4ETHO    C253405  17.159   6.928  10.276
    4ETHO   H2153406  17.172   6.819  10.256
    4ETHO   H2353407  17.240   6.981  10.223
    5ETHO    O153408  17.036   6.976  10.216
    5ETHO    C153409  16.917   6.917  10.266
    5ETHO   H1153410  16.915   6.810  10.234
    5ETHO   H1353411  16.913   6.933  10.376
    5ETHO    C253412  16.800   6.996  10.207
    5ETHO   H2153413  16.844   7.074  10.141
    5ETHO   H2353414  16.752   7.041  10.296
    6ETHO    O153415  16.715   6.920  10.128
    6ETHO    C153416  16.612   6.858  10.209
    6ETHO   H1153417  16.643   6.783  10.284
    6ETHO   H1353418  16.546   6.932  10.260
    6ETHO    C253419  16.507   6.777  10.117
    6ETHO   H2153420  16.413   6.761  10.176
    6ETHO   H2353421  16.555   6.683  10.082
    7ETHO    O153422  16.461   6.848  10.005
    7ETHO    C153423  16.425   6.747   9.904
    7ETHO   H1153424  16.525   6.704   9.882
    7ETHO   H1353425  16.360   6.668   9.948
    7ETHO    C253426  16.374   6.794   9.768
    7ETHO   H2153427  16.396   6.703   9.708
    7ETHO   H2353428  16.429   6.884   9.734
    8ETHO    O153429  16.236   6.816   9.775
    8ETHO    C153430  16.167   6.811   9.648
    8ETHO   H1153431  16.211   6.890   9.583
    8ETHO   H1353432  16.069   6.859   9.667
    8ETHO    C253433  16.146   6.679   9.577
    8ETHO   H2153434  16.247   6.631   9.573
    8ETHO   H2353435  16.110   6.701   9.474
    9ETHO    O153436  16.056   6.600   9.647
    9ETHO    C153437  15.997   6.501   9.565
    9ETHO   H1153438  15.894   6.489   9.603
    9ETHO   H1353439  15.974   6.539   9.463
    9ETHO    C253440  16.083   6.375   9.568
    9ETHO   H2153441  16.189   6.389   9.535
    9ETHO   H2353442  16.039   6.300   9.499
   10ETHO    O153443  16.083   6.304   9.695
   10ETHO    C153444  16.157   6.186   9.697
   10ETHO   H1153445  16.264   6.214   9.692
   10ETHO   H1353446  16.129   6.130   9.605
   10ETHO    C253447  16.141   6.098   9.825
   10ETHO   H2153448  16.102   6.163   9.906
   10ETHO   H2353449  16.245   6.066   9.850
   11ETHO    O153450  16.069   5.980   9.804
   11ETHO    C153451  15.929   6.004   9.822
   11ETHO   H1153452  15.914   6.068   9.912
   11ETHO   H1353453  15.902   6.072   9.739
   11ETHO    C253454  15.857   5.870   9.829
   11ETHO   H2153455  15.892   5.796   9.903
   11ETHO   H2353456  15.750   5.893   9.849
   12ETHO    O153457  15.869   5.808   9.698
   12ETHO    C153458  15.792   5.688   9.685
   12ETHO   H1153459  15.682   5.700   9.687
   12ETHO   H1353460  15.803   5.620   9.772
   12ETHO    C253461  15.809   5.606   9.550
   12ETHO   H2153462  15.749   5.512   9.549
   12ETHO   H2353463  15.916   5.581   9.530
   13ETHO    O153464  15.768   5.691   9.443
   13ETHO    C153465  15.809   5.630   9.322
   13ETHO   H1153466  15.917   5.607   9.333
   13ETHO   H1353467  15.767   5.528   9.309
   13ETHO    C253468  15.793   5.728   9.203
   13ETHO   H2153469  15.859   5.694   9.120
   13ETHO   H2353470  15.833   5.825   9.238
   14ETHO    O153471  15.662   5.743   9.168
   14ETHO    C153472  15.646   5.800   9.038
   14ETHO   H1153473  15.537   5.797   9.015
   14ETHO   H1353474  15.702   5.744   8.960
   14ETHO    C253475  15.696   5.942   9.043
   14ETHO   H2153476  15.670   5.973   8.940
   14ETHO   H2353477  15.805   5.953   9.062
   15ETHO    O153478  15.617   6.019   9.136
   15ETHO    C153479  15.639   6.167   9.126
   15ETHO   H1153480  15.737   6.189   9.175
   15ETHO   H1353481  15.645   6.199   9.020
   15ETHO    C253482  15.528   6.239   9.197
   15ETHO   H2153483  15.505   6.191   9.294
   15ETHO   H2353484  15.560   6.342   9.224
   16ETHO    O153485  15.413   6.246   9.111
   16ETHO    C153486  15.340   6.370   9.136
   16ETHO   H1153487  15.304   6.373   9.241
   16ETHO   H1353488  15.410   6.456   9.130
   16ETHO    C253489  15.225   6.386   9.043
   16ETHO   H2153490  15.165   6.466   9.092
   16ETHO   H2353491  15.161   6.296   9.045
   17ETHO    O153492  15.267   6.422   8.913
   17ETHO    C153493  15.153   6.436   8.829
   17ETHO   H1153494  15.107   6.335   8.815
   17ETHO   H1353495  15.076   6.493   8.884
   17ETHO    C253496  15.159   6.497   8.686
   17ETHO   H2153497  15.065   6.489   8.627
   17ETHO   H2353498  15.243   6.444   8.637
   18ETHO    O153499  15.202   6.632   8.692
   18ETHO    C153500  15.172   6.704   8.568
   18ETHO   H1153501  15.070   6.680   8.533
   18ETHO   H1353502  15.186   6.813   8.585
   18ETHO    C253503  15.284   6.663   8.471
   18ETHO   H2153504  15.246   6.700   8.373
   18ETHO   H2353505  15.299   6.553   8.462
   19ETHO    O153506  15.407   6.720   8.500
   19ETHO    C153507  15.493   6.712   8.384
   19ETHO   H1153508  15.567   6.795   8.380
   19ETHO   H1353509  15.432   6.732   8.294
   19ETHO    C253510  15.583   6.586   8.372
   19ETHO   H2153511  15.649   6.576   8.461
   19ETHO   H2353512  15.647   6.589   8.282
   20ETHO    O153513  15.501   6.471   8.346
   20ETHO    C153514  15.429   6.466   8.215
   20ETHO   H1153515  15.353   6.548   8.215
   20ETHO   H1353516  15.504   6.495   8.139
   20ETHO    C253517  15.362   6.337   8.176
   20ETHO   H2153518  15.304   6.365   8.085
   20ETHO   H2353519  15.296   6.301   8.257
   21ETHO    O153520  15.458   6.236   8.145
   21ETHO    C153521  15.386   6.121   8.105
   21ETHO   H1153522  15.339   6.141   8.007
   21ETHO   H1353523  15.300   6.095   8.170
   21ETHO    C253524  15.464   5.986   8.078
   21ETHO   H2153525  15.506   5.954   8.175
   21ETHO   H2353526  15.551   6.008   8.012
   22ETHO    O153527  15.387   5.887   8.013
   22ETHO    C153528  15.465   5.769   8.000
   22ETHO   H1153529  15.556   5.803   7.946
   22ETHO   H1353530  15.499   5.739   8.102
   22ETHO    C253531  15.388   5.657   7.923
   22ETHO   H2153532  15.451   5.566   7.930
   22ETHO   H2353533  15.293   5.639   7.978
   23ETHO    O153534  15.373   5.707   7.793
   23ETHO    C153535  15.294   5.613   7.716
   23ETHO   H1153536  15.193   5.604   7.761
   23ETHO   H1353537  15.343   5.514   7.701
   23ETHO    C253538  15.265   5.653   7.566
   23ETHO   H2153539  15.239   5.761   7.565
   23ETHO   H2353540  15.173   5.604   7.528
   24ETHO    O153541  15.373   5.631   7.481
   24ETHO    C153542  15.387   5.495   7.437
   24ETHO   H1153543  15.406   5.425   7.521
   24ETHO   H1353544  15.300   5.466   7.375
   24ETHO    C253545  15.511   5.490   7.353
   24ETHO   H2153546  15.505   5.575   7.282
   24ETHO   H2353547  15.509   5.392   7.300
   25ETHO    O153548  15.632   5.495   7.424
   25ETHO    C153549  15.755   5.504   7.358
   25ETHO   H1153550  15.760   5.577   7.274
   25ETHO   H1353551  15.780   5.409   7.307
   25ETHO    C253552  15.871   5.544   7.450
   25ETHO   H2153553  15.965   5.512   7.400
   25ETHO   H2353554  15.853   5.490   7.546
   26ETHO    O153555  15.866   5.688   7.481
   26ETHO    C153556  15.982   5.742   7.550
   26ETHO   H1153557  15.977   5.852   7.565
   26ETHO   H1353558  16.006   5.706   7.652
   26ETHO    C253559  16.104   5.745   7.461
   26ETHO   H2153560  16.174   5.817   7.508
   26ETHO   H2353561  16.070   5.778   7.361
   27ETHO    O153562  16.162   5.616   7.440
   27ETHO    C153563  16.251   5.618   7.324
   27ETHO   H1153564  16.266   5.722   7.286
   27ETHO   H1353565  16.201   5.560   7.244
   27ETHO    C253566  16.387   5.547   7.363
   27ETHO   H2153567  16.400   5.552   7.473
   27ETHO   H2353568  16.465   5.608   7.314
   28ETHO    O153569  16.397   5.414   7.324
   28ETHO    C153570  16.525   5.360   7.290
   28ETHO   H1153571  16.606   5.396   7.358
   28ETHO   H1353572  16.527   5.252   7.312
   28ETHO    C253573  16.548   5.395   7.144
   28ETHO   H2153574  16.462   5.397   7.073
   28ETHO   H2353575  16.617   5.317   7.106
   29ETHO    O153576  16.635   5.505   7.121
   29ETHO    C153577  16.628   5.557   6.983
   29ETHO   H1153578  16.643   5.467   6.919
   29ETHO   H1353579  16.711   5.630   6.972
   29ETHO    C253580  16.495   5.628   6.938
   29ETHO   H2153581  16.411   5.558   6.955
   29ETHO   H2353582  16.503   5.652   6.830
   30ETHO    O153583  16.478   5.750   6.997
   30ETHO    C153584  16.343   5.790   6.982
   30ETHO   H1153585  16.309   5.759   6.881
   30ETHO   H1353586  16.286   5.733   7.059
   30ETHO    C253587  16.326   5.941   7.007
   30ETHO   H2153588  16.222   5.948   6.969
   30ETHO   H2353589  16.401   5.987   6.939
   31ETHO    O153590  16.336   5.990   7.142
   31ETHO    C153591  16.281   6.121   7.167
   31ETHO   H1153592  16.349   6.188   7.111
   31ETHO   H1353593  16.178   6.126   7.128
   31ETHO    C253594  16.283   6.152   7.320
   31ETHO   H2153595  16.249   6.254   7.350
   31ETHO   H2353596  16.390   6.133   7.344
   32ETHO    O153597  16.203   6.064   7.399
   32ETHO    C153598  16.064   6.102   7.404
   32ETHO   H1153599  16.038   6.175   7.324
   32ETHO   H1353600  16.003   6.010   7.386
   32ETHO    C253601  16.025   6.161   7.542
   32ETHO   H2153602  16.058   6.094   7.625
   32ETHO   H2353603  15.917   6.183   7.558
   33ETHO    O153604  16.090   6.289   7.558
   33ETHO    C153605  16.065   6.345   7.687
   33ETHO   H1153606  15.963   6.390   7.686
   33ETHO   H1353607  16.049   6.273   7.771
   33ETHO    C253608  16.152   6.460   7.726
   33ETHO   H2153609  16.126   6.505   7.825
   33ETHO   H2353610  16.147   6.536   7.645
   34ETHO    O153611  16.291   6.420   7.735
   34ETHO    C153612  16.365   6.508   7.817
   34ETHO   H1153613  16.328   6.506   7.922
   34ETHO   H1353614  16.350   6.609   7.773
   34ETHO    C253615  16.508   6.473   7.816
   34ETHO   H2153616  16.516   6.364   7.835
   34ETHO   H2353617  16.556   6.544   7.886
   35ETHO    O153618  16.554   6.497   7.686
   35ETHO    C153619  16.691   6.455   7.681
   35ETHO   H1153620  16.742   6.474   7.778
   35ETHO   H1353621  16.694   6.346   7.658
   35ETHO    C253622  16.762   6.506   7.560
   35ETHO   H2153623  16.807   6.605   7.583
   35ETHO   H2353624  16.700   6.510   7.468
   36ETHO    O153625  16.860   6.407   7.516
   36ETHO    C153626  16.982   6.416   7.592
   36ETHO   H1153627  16.956   6.430   7.700
   36ETHO   H1353628  17.042   6.504   7.562
   36ETHO    C253629  17.080   6.299   7.578
   36ETHO   H2153630  17.178   6.342   7.609
   36ETHO   H2353631  17.091   6.281   7.469
   37ETHO    O153632  17.045   6.176   7.649
   37ETHO    C153633  17.108   6.071   7.578
   37ETHO   H1153634  17.108   6.080   7.467
   37ETHO   H1353635  17.216   6.060   7.603
   37ETHO    C253636  17.050   5.938   7.611
   37ETHO   H2153637  17.034   5.931   7.720
   37ETHO   H2353638  17.116   5.858   7.572
   38ETHO    O153639  16.920   5.915   7.548
   38ETHO    C153640  16.816   5.986   7.612
   38ETHO   H1153641  16.830   6.094   7.590
   38ETHO   H1353642  16.822   5.967   7.721
   38ETHO    C253643  16.686   5.936   7.560
   38ETHO   H2153644  16.712   5.834   7.526
   38ETHO   H2353645  16.649   6.005   7.481
   39ETHO    O153646  16.598   5.923   7.674
   39ETHO    C153647  16.555   6.046   7.723
   39ETHO   H1153648  16.636   6.110   7.764
   39ETHO   H1353649  16.500   6.096   7.641
   39ETHO    C253650  16.454   6.037   7.836
   39ETHO   H2153651  16.404   6.136   7.853
   39ETHO   H2353652  16.508   6.021   7.931
   40ETHO    O153653  16.355   5.939   7.808
   40ETHO    C153654  16.272   5.926   7.918
   40ETHO   H1153655  16.320   5.906   8.016
   40ETHO   H1353656  16.215   5.832   7.901
   40ETHO    C253657  16.169   6.031   7.929
   40ETHO   H2153658  16.116   6.050   7.833
   40ETHO   H2353659  16.218   6.126   7.959
   41ETHO    O153660  16.073   6.002   8.035
   41ETHO    C153661  15.954   5.944   7.972
   41ETHO   H1153662  15.907   6.022   7.908
   41ETHO   H1353663  15.984   5.861   7.904
   41ETHO    C253664  15.849   5.886   8.074
   41ETHO   H2153665  15.751   5.896   8.023
   41ETHO   H2353666  15.845   5.965   8.153
   42ETHO    O153667  15.862   5.751   8.112
   42ETHO    C153668  16.001   5.713   8.149
   42ETHO   H1153669  16.059   5.712   8.054
   42ETHO   H1353670  16.050   5.790   8.212
   42ETHO    C253671  16.022   5.568   8.215
   42ETHO   H2153672  16.130   5.555   8.237
   42ETHO   H2353673  15.976   5.491   8.149
   43ETHO    O153674  15.950   5.559   8.332
   43ETHO    C153675  15.985   5.442   8.399
   43ETHO   H1153676  15.942   5.360   8.338
   43ETHO   H1353677  16.095   5.432   8.411
   43ETHO    C253678  15.918   5.444   8.532
   43ETHO   H2153679  15.956   5.347   8.570
   43ETHO   H2353680  15.808   5.452   8.525
   44ETHO    O153681  15.972   5.545   8.611
   44ETHO    C153682  15.932   5.529   8.744
   44ETHO   H1153683  15.822   5.545   8.745
   44ETHO   H1353684  15.965   5.428   8.779
   44ETHO    C253685  15.988   5.633   8.846
   44ETHO   H2153686  16.099   5.635   8.839
   44ETHO   H2353687  15.948   5.599   8.944
   45ETHO    O153688  15.933   5.758   8.808
   45ETHO    C153689  16.012   5.861   8.856
   45ETHO   H1153690  16.119   5.832   8.850
   45ETHO   H1353691  15.987   5.881   8.962
   45ETHO    C253692  15.998   5.988   8.767
   45ETHO   H2153693  16.053   6.071   8.817
   45ETHO   H2353694  15.890   6.011   8.763
   46ETHO    O153695  16.063   5.957   8.641
   46ETHO    C153696  16.039   6.056   8.552
   46ETHO   H1153697  15.930   6.051   8.533
   46ETHO   H1353698  16.072   6.154   8.591
   46ETHO    C253699  16.138   6.033   8.435
   46ETHO   H2153700  16.095   6.082   8.345
   46ETHO   H2353701  16.141   5.926   8.403
   47ETHO    O153702  16.280   6.080   8.459
   47ETHO    C153703  16.378   6.002   8.388
   47ETHO   H1153704  16.345   5.901   8.357
   47ETHO   H1353705  16.457   5.985   8.464
   47ETHO    C253706  16.423   6.067   8.249
   47ETHO   H2153707  16.328   6.098   8.202
   47ETHO   H2353708  16.485   5.990   8.198
   48ETHO    O153709  16.516   6.175   8.272
   48ETHO    C153710  16.562   6.229   8.153
   48ETHO   H1153711  16.649   6.163   8.131
   48ETHO   H1353712  16.487   6.207   8.074
   48ETHO    C253713  16.600   6.378   8.147
   48ETHO   H2153714  16.659   6.388   8.240
   48ETHO   H2353715  16.669   6.403   8.064
   49ETHO    O153716  16.483   6.459   8.147
   49ETHO    C153717  16.509   6.591   8.197
   49ETHO   H1153718  16.595   6.622   8.133
   49ETHO   H1353719  16.550   6.599   8.300
   49ETHO    C253720  16.394   6.688   8.205
   49ETHO   H2153721  16.413   6.768   8.280
   49ETHO   H2353722  16.308   6.625   8.238
   50ETHO    O153723  16.370   6.745   8.076
   50ETHO    C153724  16.411   6.876   8.055
   50ETHO   H1153725  16.346   6.947   8.111
   50ETHO   H1353726  16.512   6.892   8.099
   50ETHO    C253727  16.393   6.917   7.912
   50ETHO   H2153728  16.448   6.842   7.851
   50ETHO   H2353729  16.452   7.009   7.896
   51ETHO    O153730  16.252   6.920   7.877
   51ETHO    C153731  16.222   6.976   7.754
   51ETHO   H1153732  16.257   6.910   7.672
   51ETHO   H1353733  16.273   7.075   7.744
   51ETHO    C253734  16.072   7.018   7.756
   51ETHO   H2153735  16.021   6.924   7.786
   51ETHO   H2353736  16.025   7.047   7.660
   52ETHO    O153737  16.043   7.122   7.849
   52ETHO    C153738  15.906   7.165   7.838
   52ETHO   H1153739  15.881   7.178   7.731
   52ETHO   H1353740  15.833   7.090   7.878
   52ETHO    C253741  15.891   7.303   7.907
   52ETHO   H2153742  15.787   7.340   7.901
   52ETHO   H2353743  15.956   7.373   7.850
   53ETHO    O153744  15.924   7.304   8.047
   53ETHO    C153745  15.862   7.408   8.113
   53ETHO   H1153746  15.878   7.503   8.059
   53ETHO   H1353747  15.760   7.380   8.148
   53ETHO    C253748  15.955   7.418   8.239
   53ETHO   H2153749  15.948   7.519   8.285
   53ETHO   H2353750  16.058   7.402   8.201
   54ETHO    O153751  15.915   7.315   8.333
   54ETHO    C153752  16.015   7.289   8.425
   54ETHO   H1153753  15.989   7.191   8.470
   54ETHO   H1353754  16.118   7.276   8.386
   54ETHO    C253755  16.026   7.390   8.536
   54ETHO   H2153756  15.946   7.365   8.609
   54ETHO   H2353757  16.008   7.494   8.501
   55ETHO    O153758  16.147   7.389   8.610
   55ETHO    C153759  16.128   7.419   8.748
   55ETHO   H1153760  16.093   7.525   8.753
   55ETHO   H1353761  16.062   7.349   8.804
   55ETHO    C253762  16.256   7.410   8.833
   55ETHO   H2153763  16.329   7.469   8.773
   55ETHO   H2353764  16.244   7.468   8.926
   56ETHO    O153765  16.308   7.276   8.839
   56ETHO    C153766  16.441   7.277   8.888
   56ETHO   H1153767  16.517   7.340   8.836
   56ETHO   H1353768  16.488   7.180   8.863
   56ETHO    C253769  16.466   7.300   9.034
   56ETHO   H2153770  16.570   7.275   9.063
   56ETHO   H2353771  16.398   7.223   9.075
   57ETHO    O153772  16.428   7.431   9.073
   57ETHO    C153773  16.410   7.434   9.214
   57ETHO   H1153774  16.374   7.533   9.250
   57ETHO   H1353775  16.346   7.351   9.250
   57ETHO    C253776  16.550   7.415   9.288
   57ETHO   H2153777  16.539   7.455   9.391
   57ETHO   H2353778  16.627   7.481   9.242
   58ETHO    O153779  16.616   7.289   9.296
   58ETHO    C153780  16.748   7.294   9.335
   58ETHO   H1153781  16.760   7.377   9.408
   58ETHO   H1353782  16.814   7.324   9.251
   58ETHO    C253783  16.804   7.156   9.375
   58ETHO   H2153784  16.725   7.091   9.419
   58ETHO   H2353785  16.889   7.151   9.446
   59ETHO    O153786  16.844   7.084   9.261
   59ETHO    C153787  16.843   6.940   9.275
   59ETHO   H1153788  16.876   6.910   9.377
   59ETHO   H1353789  16.738   6.908   9.258
   59ETHO    C253790  16.933   6.859   9.176
   59ETHO   H2153791  16.921   6.752   9.206
   59ETHO   H2353792  17.043   6.874   9.173
   60ETHO    O153793  16.880   6.865   9.041
   60ETHO    C153794  16.937   6.777   8.955
   60ETHO   H1153795  16.941   6.674   8.996
   60ETHO   H1353796  17.042   6.805   8.935
   60ETHO    C253797  16.876   6.787   8.816
   60ETHO   H2153798  16.955   6.749   8.748
   60ETHO   H2353799  16.847   6.889   8.784
   61ETHO    O153800  16.769   6.698   8.798
   61ETHO    C153801  16.692   6.718   8.677
   61ETHO   H1153802  16.644   6.818   8.680
   61ETHO   H1353803  16.762   6.728   8.591
   61ETHO    C253804  16.579   6.606   8.637
   61ETHO   H2153805  16.532   6.649   8.546
   61ETHO   H2353806  16.509   6.605   8.723
   62ETHO    O153807  16.629   6.475   8.605
   62ETHO    C153808  16.542   6.385   8.556
   62ETHO   H1153809  16.592   6.286   8.549
   62ETHO   H1353810  16.514   6.423   8.456
   62ETHO    C253811  16.416   6.371   8.646
   62ETHO   H2153812  16.355   6.285   8.611
   62ETHO   H2353813  16.353   6.463   8.647
   63ETHO    O153814  16.461   6.319   8.776
   63ETHO    C153815  16.359   6.277   8.861
   63ETHO   H1153816  16.376   6.324   8.961
   63ETHO   H1353817  16.260   6.314   8.829
   63ETHO    C253818  16.349   6.124   8.877
   63ETHO   H2153819  16.352   6.087   8.772
   63ETHO   H2353820  16.254   6.104   8.931
   64ETHO    O153821  16.459   6.068   8.949
   64ETHO    C153822  16.432   5.929   8.966
   64ETHO   H1153823  16.325   5.905   8.982
   64ETHO   H1353824  16.491   5.889   9.052
   64ETHO    C253825  16.473   5.843   8.838
   64ETHO   H2153826  16.581   5.871   8.837
   64ETHO   H2353827  16.412   5.869   8.749
   65ETHO    O153828  16.457   5.707   8.876
   65ETHO    C153829  16.484   5.616   8.775
   65ETHO   H1153830  16.411   5.634   8.694
   65ETHO   H1353831  16.585   5.641   8.737
   65ETHO    C253832  16.469   5.476   8.822
   65ETHO   H2153833  16.449   5.420   8.728
   65ETHO   H2353834  16.376   5.470   8.884
   66ETHO    O153835  16.577   5.418   8.901
   66ETHO    C153836  16.542   5.285   8.936
   66ETHO   H1153837  16.445   5.283   8.990
   66ETHO   H1353838  16.610   5.254   9.018
   66ETHO    C253839  16.579   5.174   8.829
   66ETHO   H2153840  16.518   5.190   8.738
   66ETHO   H2353841  16.556   5.072   8.867
   67ETHO    O153842  16.724   5.167   8.805
   67ETHO    C153843  16.759   5.097   8.684
   67ETHO   H1153844  16.862   5.057   8.681
   67ETHO   H1353845  16.704   5.001   8.674
   67ETHO    C253846  16.754   5.187   8.557
   67ETHO   H2153847  16.655   5.238   8.566
   67ETHO   H2353848  16.753   5.120   8.469
   68ETHO    O153849  16.859   5.281   8.548
   68ETHO    C153850  16.873   5.340   8.420
   68ETHO   H1153851  16.882   5.260   8.344
   68ETHO   H1353852  16.787   5.400   8.383
   68ETHO    C253853  16.984   5.446   8.406
   68ETHO   H2153854  16.998   5.450   8.296
   68ETHO   H2353855  17.078   5.409   8.453
   69ETHO    O153856  16.938   5.571   8.453
   69ETHO    C153857  17.041   5.664   8.445
   69ETHO   H1153858  17.126   5.617   8.499
   69ETHO   H1353859  17.065   5.682   8.338
   69ETHO    C253860  17.003   5.798   8.521
   69ETHO   H2153861  17.095   5.859   8.529
   69ETHO   H2353862  16.982   5.783   8.629
   70ETHO    O153863  16.892   5.874   8.467
   70ETHO    C153864  16.837   5.967   8.560
   70ETHO   H1153865  16.746   6.010   8.514
   70ETHO   H1353866  16.800   5.912   8.649
   70ETHO    C253867  16.933   6.093   8.592
   70ETHO   H2153868  17.013   6.053   8.658
   70ETHO   H2353869  16.868   6.166   8.644
   71ETHO    O153870  16.992   6.176   8.495
   71ETHO    C153871  16.893   6.228   8.407
   71ETHO   H1153872  16.802   6.263   8.460
   71ETHO   H1353873  16.877   6.154   8.326
   71ETHO    C253874  16.960   6.356   8.343
   71ETHO   H2153875  16.917   6.361   8.240
   71ETHO   H2353876  17.068   6.333   8.334
   72ETHO    O153877  16.944   6.472   8.421
   72ETHO    C153878  16.972   6.587   8.350
   72ETHO   H1153879  17.059   6.574   8.281
   72ETHO   H1353880  16.892   6.620   8.281
   72ETHO    C253881  17.022   6.708   8.425
   72ETHO   H2153882  16.936   6.754   8.477
   72ETHO   H2353883  17.061   6.769   8.340
   73ETHO    O153884  17.120   6.667   8.517
   73ETHO    C153885  17.202   6.768   8.570
   73ETHO   H1153886  17.270   6.706   8.633
   73ETHO   H1353887  17.154   6.837   8.642
   73ETHO    C253888  17.278   6.843   8.463
   73ETHO   H2153889  17.307   6.770   8.385
   73ETHO   H2353890  17.372   6.890   8.500
   74ETHO    O153891  17.210   6.950   8.404
   74ETHO    C153892  17.275   7.015   8.289
   74ETHO   H1153893  17.361   7.074   8.326
   74ETHO   H1353894  17.305   6.944   8.210
   74ETHO    C253895  17.174   7.117   8.225
   74ETHO   H2153896  17.235   7.187   8.165
   74ETHO   H2353897  17.131   7.176   8.309
   75ETHO    O153898  17.075   7.056   8.154
   75ETHO    C153899  16.990   7.148   8.097
   75ETHO   H1153900  17.023   7.254   8.091
   75ETHO   H1353901  16.891   7.132   8.145
   75ETHO    C253902  16.955   7.101   7.952
   75ETHO   H2153903  17.051   7.079   7.900
   75ETHO   H2353904  16.900   7.185   7.905
   76ETHO    O153905  16.871   6.988   7.951
   76ETHO    C153906  16.786   6.978   7.835
   76ETHO   H1153907  16.721   6.891   7.855
   76ETHO   H1353908  16.713   7.062   7.825
   76ETHO    C253909  16.873   6.965   7.712
   76ETHO   H2153910  16.814   6.906   7.638
   76ETHO   H2353911  16.948   6.884   7.717
   77ETHO    O153912  16.930   7.088   7.658
   77ETHO    C153913  16.942   7.079   7.519
   77ETHO   H1153914  16.847   7.101   7.467
   77ETHO   H1353915  16.981   6.982   7.480
   77ETHO    C253916  17.046   7.177   7.473
   77ETHO   H2153917  17.052   7.169   7.362
   77ETHO   H2353918  17.143   7.165   7.527
   78ETHO    O153919  16.993   7.310   7.494
   78ETHO    C153920  17.089   7.401   7.449
   78ETHO   H1153921  17.176   7.380   7.516
   78ETHO   H1353922  17.134   7.366   7.354
   78ETHO    C253923  17.043   7.545   7.448
   78ETHO   H2153924  16.932   7.550   7.438
   78ETHO   H2353925  17.088   7.606   7.367
   79ETHO    O153926  17.072   7.596   7.576
   79ETHO    C153927  16.990   7.715   7.605
   79ETHO   H1153928  16.981   7.793   7.526
   79ETHO   H1353929  16.886   7.687   7.633
   79ETHO    C253930  17.056   7.796   7.719
   79ETHO   H2153931  16.986   7.881   7.735
   79ETHO   H2353932  17.148   7.843   7.679
   80ETHO    O153933  17.065   7.701   7.822
   80ETHO    C153934  17.140   7.757   7.932
   80ETHO   H1153935  17.225   7.821   7.899
   80ETHO   H1353936  17.074   7.831   7.981
   80ETHO    C253937  17.189   7.662   8.041
   80ETHO   H2153938  17.245   7.714   8.121
   80ETHO   H2353939  17.247   7.583   7.990
   81ETHO    O153940  17.062   7.607   8.094
   81ETHO    C153941  17.082   7.522   8.204
   81ETHO   H1153942  17.005   7.443   8.192
   81ETHO   H1353943  17.183   7.476   8.206
   81ETHO    C253944  17.043   7.593   8.333
   81ETHO   H2153945  16.937   7.625   8.326
   81ETHO   H2353946  17.044   7.523   8.419
   82ETHO    O153947  17.119   7.708   8.372
   82ETHO    C153948  17.246   7.662   8.416
   82ETHO   H1153949  17.307   7.633   8.327
   82ETHO   H1353950  17.238   7.571   8.479
   82ETHO    C253951  17.336   7.771   8.484
   82ETHO   H2153952  17.346   7.858   8.416
   82ETHO   H2353953  17.438   7.729   8.498
   83ETHO    O153954  17.284   7.814   8.608
   83ETHO    C153955  17.378   7.901   8.675
   83ETHO   H1153956  17.483   7.866   8.670
   83ETHO   H1353957  17.382   8.003   8.631
   83ETHO    C253958  17.335   7.933   8.817
   83ETHO   H2153959  17.226   7.953   8.818
   83ETHO   H2353960  17.395   8.023   8.839
   84ETHO    O153961  17.363   7.831   8.907
   84ETHO    C153962  17.329   7.880   9.042
   84ETHO   H1153963  17.225   7.919   9.047
   84ETHO   H1353964  17.399   7.962   9.072
   84ETHO    C253965  17.329   7.768   9.154
   84ETHO   H2153966  17.273   7.820   9.234
   84ETHO   H2353967  17.430   7.727   9.176
   85ETHO    O153968  17.242   7.662   9.117
   85ETHO    C153969  17.180   7.599   9.226
   85ETHO   H1153970  17.261   7.568   9.295
   85ETHO   H1353971  17.115   7.670   9.281
   85ETHO    C253972  17.104   7.467   9.185
   85ETHO   H2153973  17.093   7.404   9.276
   85ETHO   H2353974  17.165   7.411   9.111
   86ETHO    O153975  16.970   7.483   9.139
   86ETHO    C153976  16.955   7.537   9.008
   86ETHO   H1153977  16.992   7.469   8.929
   86ETHO   H1353978  17.013   7.631   8.995
   86ETHO    C253979  16.809   7.556   8.972
   86ETHO   H2153980  16.743   7.480   9.019
   86ETHO   H2353981  16.802   7.557   8.861
   87ETHO    O153982  16.758   7.680   9.019
   87ETHO    C153983  16.625   7.704   8.966
   87ETHO   H1153984  16.645   7.769   8.878
   87ETHO   H1353985  16.570   7.613   8.935
   87ETHO    C253986  16.535   7.806   9.041
   87ETHO   H2153987  16.600   7.885   9.084
   87ETHO   H2353988  16.493   7.753   9.130
   88ETHO    O153989  16.432   7.876   8.967
   88ETHO    C153990  16.329   7.779   8.935
   88ETHO   H1153991  16.311   7.704   9.015
   88ETHO   H1353992  16.355   7.710   8.852
   88ETHO    C253993  16.200   7.844   8.901
   88ETHO   H2153994  16.222   7.946   8.862
   88ETHO   H2353995  16.141   7.873   8.990
   89ETHO    O153996  16.125   7.764   8.811
   89ETHO    C153997  16.023   7.853   8.759
   89ETHO   H1153998  15.957   7.883   8.843
   89ETHO   H1353999  16.062   7.951   8.723
   89ETHO    C254000  15.943   7.780   8.647
   89ETHO   H2154001  16.007   7.730   8.572
   89ETHO   H2354002  15.878   7.851   8.592
   90ETHO    O154003  15.856   7.682   8.705
   90ETHO    C154004  15.738   7.731   8.761
   90ETHO   H1154005  15.770   7.786   8.852
   90ETHO   H1354006  15.691   7.807   8.694
   90ETHO    C254007  15.638   7.618   8.801
   90ETHO   H2154008  15.655   7.554   8.891
   90ETHO   H2354009  15.624   7.554   8.712
   91ETHO    O154010  15.511   7.682   8.822
   91ETHO    C154011  15.508   7.764   8.943
   91ETHO   H1154012  15.477   7.690   9.019
   91ETHO   H1354013  15.608   7.799   8.976
   91ETHO    C254014  15.403   7.879   8.936
   91ETHO   H2154015  15.319   7.827   8.886
   91ETHO   H2354016  15.428   7.957   8.862
   92ETHO    O154017  15.375   7.934   9.066
   92ETHO    C154018  15.278   8.041   9.053
   92ETHO   H1154019  15.327   8.117   8.988
   92ETHO   H1354020  15.189   8.004   8.997
   92ETHO    C254021  15.248   8.099   9.192
   92ETHO   H2154022  15.187   8.191   9.177
   92ETHO   H2354023  15.343   8.129   9.241
   93ETHO    O154024  15.169   8.015   9.281
   93ETHO    C154025  15.185   8.054   9.414
   93ETHO   H1154026  15.230   8.155   9.424
   93ETHO   H1354027  15.238   7.970   9.462
   93ETHO    C254028  15.049   8.074   9.482
   93ETHO   H2154029  15.049   8.070   9.593
   93ETHO   H2354030  14.994   7.986   9.442
   94ETHO    O154031  14.985   8.199   9.441
   94ETHO    C154032  14.868   8.216   9.515
   94ETHO   H1154033  14.807   8.125   9.502
   94ETHO   H1354034  14.890   8.223   9.623
   94ETHO    C254035  14.784   8.337   9.468
   94ETHO   H2154036  14.692   8.340   9.529
   94ETHO   H2354037  14.759   8.329   9.360
   95ETHO    O154038  14.860   8.456   9.491
   95ETHO    C154039  14.790   8.567   9.443
   95ETHO   H1154040  14.700   8.586   9.504
   95ETHO   H1354041  14.749   8.548   9.342
   95ETHO    C254042  14.883   8.687   9.438
   95ETHO   H2154043  14.860   8.753   9.352
   95ETHO   H2354044  14.988   8.654   9.422
   96ETHO    O154045  14.873   8.755   9.568
   96ETHO    C154046  14.993   8.817   9.605
   96ETHO   H1154047  15.033   8.863   9.511
   96ETHO   H1354048  14.982   8.904   9.672
   96ETHO    C254049  15.100   8.723   9.667
   96ETHO   H2154050  15.185   8.794   9.663
   96ETHO   H2354051  15.135   8.636   9.609
   97ETHO    O154052  15.084   8.682   9.803
   97ETHO    C154053  14.990   8.579   9.808
   97ETHO   H1154054  15.033   8.489   9.758
   97ETHO   H1354055  14.911   8.608   9.736
   97ETHO    C254056  14.939   8.546   9.947
   97ETHO   H2154057  15.024   8.512  10.009
   97ETHO   H2354058  14.879   8.453   9.936
   98ETHO    O154059  14.849   8.638  10.015
   98ETHO    C154060  14.905   8.755  10.064
   98ETHO   H1154061  15.001   8.733  10.117
   98ETHO   H1354062  14.924   8.828   9.982
   98ETHO    C254063  14.820   8.827  10.168
   98ETHO   H2154064  14.811   8.758  10.255
   98ETHO   H2354065  14.721   8.853  10.125
   99ETHO    O154066  14.884   8.943  10.203
   99ETHO    C154067  14.827   9.025  10.310
   99ETHO   H1154068  14.907   9.080  10.365
   99ETHO   H1354069  14.799   8.944  10.380
   99ETHO    C254070  14.705   9.117  10.278
   99ETHO   H2154071  14.641   9.052  10.215
   99ETHO   H2354072  14.732   9.208  10.222
  100ETHO    O154073  14.637   9.154  10.403
  100ETHO    C154074  14.715   9.252  10.479
  100ETHO   H1154075  14.796   9.200  10.535
  100ETHO   H1354076  14.760   9.328  10.412
  100ETHO    C254077  14.636   9.315  10.589
  100ETHO   H2154078  14.713   9.360  10.657
  100ETHO   H2354079  14.577   9.233  10.636
  101PROX    O154080  14.562   9.423  10.538
  101PROX    C154081  14.464   9.384  10.442
  101PROX   H1154082  14.506   9.340  10.349
  101PROX   H1354083  14.385   9.325  10.494
  101PROX    C254084  14.402   9.515  10.391
  101PROX   H2154085  14.376   9.588  10.470
  101PROX    C354086  14.264   9.487  10.336
  101PROX   H3154087  14.209   9.417  10.402
  101PROX   H3254088  14.213   9.584  10.322
  101PROX   H3354089  14.277   9.437  10.238
  102PROX    O154090  14.490   9.574  10.292
  102PROX    C154091  14.582   9.661  10.347
  102PROX   H1154092  14.523   9.747  10.384
  102PROX   H1354093  14.638   9.611  10.429
  102PROX    C254094  14.686   9.708  10.246
  102PROX   H2154095  14.620   9.769  10.181
  102PROX    C354096  14.755   9.591  10.173
  102PROX   H3154097  14.677   9.550  10.106
  102PROX   H3254098  14.845   9.621  10.115
  102PROX   H3354099  14.790   9.522  10.253
  103PROX    O154100  14.780   9.790  10.318
  103PROX    C154101  14.868   9.853  10.229
  103PROX   H1154102  14.960   9.791  10.224
  103PROX   H1354103  14.812   9.853  10.133
  103PROX    C254104  14.903  10.003  10.260
  103PROX   H2154105  14.809  10.043  10.305
  103PROX    C354106  14.947  10.090  10.142
  103PROX   H3154107  14.940  10.201  10.151
  103PROX   H3254108  15.052  10.063  10.118
  103PROX   H3354109  14.884  10.070  10.052
  104PROX    O154110  14.998  10.005  10.361
  104PROX    C154111  15.001  10.134  10.428
  104PROX   H1154112  15.059  10.203  10.362
  104PROX   H1354113  14.902  10.184  10.435
  104PROX    C254114  15.066  10.125  10.566
  104PROX   H2154115  15.174  10.109  10.545
  104PROX    C354116  15.004  10.013  10.645
  104PROX   H3154117  14.913  10.056  10.691
  104PROX   H3254118  14.980   9.934  10.571
  104PROX   H3354119  15.062   9.964  10.726
  105PROX    O154120  15.048  10.256  10.629
  105PROX    C154121  15.127  10.279  10.746
  105PROX   H1154122  15.112  10.202  10.824
  105PROX   H1354123  15.232  10.267  10.712
  105PROX    C254124  15.094  10.411  10.819
  105PROX   H2154125  15.050  10.484  10.748
  105PROX    C354126  15.217  10.478  10.878
  105PROX   H3154127  15.236  10.574  10.825
  105PROX   H3254128  15.196  10.509  10.983
  105PROX   H3354129  15.302  10.408  10.864
  106PROX    O154130  15.003  10.379  10.918
  106PROX    C154131  14.866  10.370  10.876
  106PROX   H1154132  14.829  10.475  10.874
  106PROX   H1354133  14.859  10.315  10.779
  106PROX    C254134  14.775  10.293  10.977
  106PROX   H2154135  14.797  10.333  11.078
  106PROX    C354136  14.813  10.142  10.995
  106PROX   H3154137  14.767  10.101  11.088
  106PROX   H3254138  14.797  10.076  10.907
  106PROX   H3354139  14.924  10.140  11.007
  107PROX    O154140  14.640  10.307  10.941
  107PROX    C154141  14.588  10.438  10.975
  107PROX   H1154142  14.636  10.493  11.059
  107PROX   H1354143  14.607  10.495  10.882
  107PROX    C254144  14.434  10.425  11.008
  107PROX   H2154145  14.383  10.383  10.919
  107PROX    C354146  14.363  10.563  11.019
  107PROX   H3154147  14.422  10.623  11.091
  107PROX   H3254148  14.378  10.621  10.926
  107PROX   H3354149  14.254  10.565  11.042
  108PROX    O154150  14.423  10.329  11.117
  108PROX    C154151  14.507  10.354  11.232
  108PROX   H1154152  14.607  10.306  11.225
  108PROX   H1354153  14.503  10.461  11.259
  108PROX    C254154  14.448  10.279  11.352
  108PROX   H2154155  14.454  10.172  11.322
  108PROX    C354156  14.302  10.325  11.388
  108PROX   H3154157  14.240  10.274  11.311
  108PROX   H3254158  14.273  10.289  11.489
  108PROX   H3354159  14.291  10.435  11.377
  109PROX    O154160  14.540  10.304  11.460
  109PROX    C154161  14.516  10.238  11.583
  109PROX   H1154162  14.442  10.299  11.640
  109PROX   H1354163  14.477  10.138  11.558
  109PROX    C254164  14.647  10.235  11.660
  109PROX   H2154165  14.677  10.339  11.634
  109PROX    C354166  14.742  10.128  11.609
  109PROX   H3154167  14.847  10.141  11.644
  109PROX   H3254168  14.723  10.022  11.638
  109PROX   H3354169  14.752  10.121  11.499
  110PROX    O154170  14.629  10.228  11.800
  110PROX    C154171  14.616  10.358  11.864
  110PROX   H1154172  14.528  10.408  11.817
  110PROX   H1354173  14.589  10.348  11.971
  110PROX    C254174  14.739  10.456  11.867
  110PROX   H2154175  14.751  10.496  11.764
  110PROX    C354176  14.868  10.396  11.912
  110PROX   H3154177  14.945  10.470  11.943
  110PROX   H3254178  14.860  10.329  12.000
  110PROX   H3354179  14.912  10.345  11.824
  111PROX    O154180  14.705  10.567  11.952
  111PROX    C154181  14.775  10.688  11.924
  111PROX   H1154182  14.765  10.768  12.000
  111PROX   H1354183  14.882  10.661  11.910
  111PROX    C254184  14.725  10.759  11.793
  111PROX   H2154185  14.730  10.689  11.707
  111PROX    C354186  14.825  10.868  11.747
  111PROX   H3154187  14.846  10.946  11.823
  111PROX   H3254188  14.927  10.829  11.726
  111PROX   H3354189  14.783  10.919  11.658
  112PROX    O154190  14.601  10.816  11.816
  112PROX    C154191  14.498  10.715  11.788
  112PROX   H1154192  14.529  10.613  11.818
  112PROX   H1354193  14.413  10.737  11.857
  112PROX    C254194  14.445  10.714  11.641
  112PROX   H2154195  14.406  10.816  11.620
  112PROX    C354196  14.325  10.620  11.619
  112PROX   H3154197  14.241  10.635  11.689
  112PROX   H3254198  14.291  10.632  11.513
  112PROX   H3354199  14.362  10.515  11.622
  113PROX    O154200  14.554  10.676  11.559
  113PROX    C154201  14.532  10.700  11.420
  113PROX   H1154202  14.464  10.622  11.379
  113PROX   H1354203  14.493  10.804  11.421
  113PROX    C254204  14.661  10.708  11.337
  113PROX   H2154205  14.745  10.742  11.402
  113PROX    C354206  14.649  10.796  11.217
  113PROX   H3154207  14.663  10.905  11.238
  113PROX   H3254208  14.729  10.762  11.148
  113PROX   H3354209  14.557  10.786  11.156
  114PROX    O154210  14.703  10.581  11.281
  114PROX    C154211  14.798  10.514  11.375
  114PROX   H1154212  14.765  10.538  11.478
  114PROX   H1354213  14.794  10.403  11.369
  114PROX    C254214  14.943  10.557  11.350
  114PROX   H2154215  14.947  10.668  11.346
  114PROX    C354216  14.994  10.505  11.216
  114PROX   H3154217  15.006  10.396  11.201
  114PROX   H3254218  14.925  10.525  11.132
  114PROX   H3354219  15.095  10.550  11.201
  115PROX    O154220  15.035  10.512  11.453
  115PROX    C154221  15.012  10.590  11.574
  115PROX   H1154222  15.011  10.697  11.543
  115PROX   H1354223  14.925  10.561  11.638
  115PROX    C254224  15.133  10.588  11.667
  115PROX   H2154225  15.110  10.646  11.759
  115PROX    C354226  15.254  10.660  11.607
  115PROX   H3154227  15.230  10.767  11.589
  115PROX   H3254228  15.340  10.652  11.676
  115PROX   H3354229  15.271  10.607  11.510
  116PROX    O154230  15.154  10.461  11.720
  116PROX    C154231  15.223  10.372  11.637
  116PROX   H1154232  15.229  10.391  11.528
  116PROX   H1354233  15.326  10.371  11.680
  116PROX    C254234  15.173  10.226  11.657
  116PROX   H2154235  15.070  10.220  11.615
  116PROX    C354236  15.165  10.176  11.801
  116PROX   H3154237  15.124  10.072  11.799
  116PROX   H3254238  15.270  10.177  11.838
  116PROX   H3354239  15.103  10.248  11.859
  117PROX    O154240  15.254  10.134  11.586
  117PROX    C154241  15.176  10.058  11.490
  117PROX   H1154242  15.212   9.953  11.485
  117PROX   H1354243  15.070  10.040  11.517
  117PROX    C254244  15.177  10.123  11.350
  117PROX   H2154245  15.151  10.231  11.360
  117PROX    C354246  15.069  10.057  11.262
  117PROX   H3154247  14.964  10.073  11.295
  117PROX   H3254248  15.073  10.111  11.165
  117PROX   H3354249  15.090   9.950  11.244
  118PROX    O154250  15.300  10.101  11.291
  118PROX    C154251  15.400  10.202  11.315
  118PROX   H1154252  15.393  10.288  11.244
  118PROX   H1354253  15.377  10.247  11.414
  118PROX    C254254  15.540  10.137  11.304
  118PROX   H2154255  15.548  10.039  11.356
  118PROX    C354256  15.636  10.229  11.380
  118PROX   H3154257  15.592  10.244  11.481
  118PROX   H3254258  15.730  10.172  11.392
  118PROX   H3354259  15.660  10.325  11.330
  119PROX    O154260  15.574  10.136  11.169
  119PROX    C154261  15.509  10.028  11.098
  119PROX   H1154262  15.588   9.962  11.058
  119PROX   H1354263  15.449   9.964  11.165
  119PROX    C254264  15.427  10.081  10.985
  119PROX   H2154265  15.357  10.163  11.009
  119PROX    C354266  15.339   9.975  10.912
  119PROX   H3154267  15.297  10.013  10.816
  119PROX   H3254268  15.403   9.884  10.904
  119PROX   H3354269  15.255   9.946  10.978
  120PROX    O154270  15.515  10.117  10.879
  120PROX    C154271  15.580  10.244  10.903
  120PROX   H1154272  15.523  10.301  10.979
  120PROX   H1354273  15.676  10.218  10.952
  120PROX    C254274  15.584  10.325  10.772
  120PROX   H2154275  15.500  10.287  10.710
  120PROX    C354276  15.717  10.298  10.694
  120PROX   H3154277  15.714  10.190  10.671
  120PROX   H3254278  15.716  10.357  10.600
  120PROX   H3354279  15.804  10.329  10.756
  121PROX    O154280  15.564  10.466  10.793
  121PROX    C154281  15.667  10.535  10.863
  121PROX   H1154282  15.666  10.507  10.971
  121PROX   H1354283  15.767  10.519  10.817
  121PROX    C254284  15.644  10.685  10.853
  121PROX   H2154285  15.611  10.698  10.748
  121PROX    C354286  15.776  10.752  10.906
  121PROX   H3154287  15.789  10.758  11.016
  121PROX   H3254288  15.866  10.707  10.859
  121PROX   H3354289  15.772  10.859  10.878
  122PROX    O154290  15.527  10.717  10.924
  122PROX    C154291  15.505  10.860  10.916
  122PROX   H1154292  15.588  10.911  10.971
  122PROX   H1354293  15.494  10.895  10.811
  122PROX    C254294  15.357  10.901  10.966
  122PROX   H2154295  15.282  10.840  10.912
  122PROX    C354296  15.325  11.053  10.923
  122PROX   H3154297  15.355  11.049  10.816
  122PROX   H3254298  15.215  11.062  10.936
  122PROX   H3354299  15.382  11.121  10.990
  123PROX    O154300  15.342  10.892  11.109
  123PROX    C154301  15.339  10.755  11.160
  123PROX   H1154302  15.244  10.744  11.217
  123PROX   H1354303  15.335  10.692  11.069
  123PROX    C254304  15.475  10.727  11.225
  123PROX   H2154305  15.556  10.781  11.172
  123PROX    C354306  15.502  10.575  11.232
  123PROX   H3154307  15.461  10.529  11.324
  123PROX   H3254308  15.464  10.530  11.138
  123PROX   H3354309  15.612  10.559  11.228
  124PROX    O154310  15.481  10.761  11.364
  124PROX    C154311  15.459  10.899  11.396
  124PROX   H1154312  15.362  10.936  11.356
  124PROX   H1354313  15.452  10.904  11.507
  124PROX    C254314  15.569  10.989  11.346
  124PROX   H2154315  15.556  10.994  11.236
  124PROX    C354316  15.710  10.942  11.382
  124PROX   H3154317  15.790  11.005  11.338
  124PROX   H3254318  15.709  10.932  11.493
  124PROX   H3354319  15.727  10.841  11.340
  125PROX    O154320  15.556  11.120  11.400
  125PROX    C154321  15.446  11.188  11.340
  125PROX   H1154322  15.452  11.168  11.231
  125PROX   H1354323  15.345  11.163  11.379
  125PROX    C254324  15.469  11.337  11.366
  125PROX   H2154325  15.579  11.348  11.377
  125PROX    C354326  15.405  11.386  11.493
  125PROX   H3154327  15.454  11.358  11.588
  125PROX   H3254328  15.384  11.495  11.500
  125PROX   H3354329  15.301  11.349  11.491
  126PROX    O154330  15.412  11.396  11.258
  126PROX    C154331  15.467  11.522  11.215
  126PROX   H1154332  15.409  11.562  11.130
  126PROX   H1354333  15.457  11.595  11.298
  126PROX    C254334  15.621  11.519  11.177
  126PROX   H2154335  15.672  11.493  11.272
  126PROX    C354336  15.675  11.662  11.141
  126PROX   H3154337  15.786  11.657  11.144
  126PROX   H3254338  15.644  11.697  11.041
  126PROX   H3354339  15.652  11.735  11.221
  127PROX    O154340  15.644  11.427  11.065
  127PROX    C154341  15.767  11.343  11.089
  127PROX   H1154342  15.865  11.393  11.073
  127PROX   H1354343  15.759  11.301  11.192
  127PROX    C254344  15.761  11.223  10.987
  127PROX   H2154345  15.656  11.190  10.969
  127PROX    C354346  15.841  11.105  11.052
  127PROX   H3154347  15.867  11.033  10.972
  127PROX   H3254348  15.937  11.151  11.085
  127PROX   H3354349  15.794  11.055  11.140
  128PROX    O154350  15.813  11.266  10.860
  128PROX    C154351  15.803  11.182  10.748
  128PROX   H1154352  15.851  11.231  10.660
  128PROX   H1354353  15.855  11.085  10.763
  128PROX    C254354  15.660  11.157  10.700
  128PROX   H2154355  15.595  11.122  10.782
  128PROX    C354356  15.657  11.063  10.582
  128PROX   H3154357  15.704  10.968  10.615
  128PROX   H3254358  15.559  11.044  10.532
  128PROX   H3354359  15.730  11.096  10.505
  129PROX    O154360  15.610  11.279  10.657
  129PROX    C154361  15.469  11.275  10.627
  129PROX   H1154362  15.458  11.265  10.517
  129PROX   H1354363  15.409  11.199  10.680
  129PROX    C254364  15.423  11.414  10.673
  129PROX   H2154365  15.493  11.484  10.624
  129PROX    C354366  15.440  11.425  10.828
  129PROX   H3154367  15.397  11.519  10.867
  129PROX   H3254368  15.392  11.334  10.871
  129PROX   H3354369  15.547  11.413  10.855
  130PROX    O154370  15.289  11.437  10.631
  130PROX    C154371  15.254  11.577  10.635
  130PROX   H1154372  15.293  11.628  10.726
  130PROX   H1354373  15.296  11.630  10.547
  130PROX    C254374  15.096  11.591  10.627
  130PROX   H2154375  15.065  11.518  10.704
  130PROX    C354376  15.055  11.558  10.479
  130PROX   H3154377  15.104  11.466  10.440
  130PROX   H3254378  14.946  11.550  10.456
  130PROX   H3354379  15.093  11.635  10.409
  131PROX    O154380  15.056  11.730  10.648
  131PROX    C154381  15.076  11.780  10.776
  131PROX   H1154382  15.070  11.700  10.853
  131PROX   H1354383  15.181  11.815  10.778
  131PROX    C254384  14.986  11.904  10.799
  131PROX   H2154385  14.989  11.950  10.698
  131PROX    C354386  15.050  11.999  10.897
  131PROX   H3154387  15.151  12.027  10.861
  131PROX   H3254388  14.984  12.085  10.925
  131PROX   H3354389  15.071  11.940  10.989
  132PROX    O154390  14.857  11.855  10.840
  132PROX    C154391  14.771  11.807  10.740
  132PROX   H1154392  14.672  11.855  10.755
  132PROX   H1354393  14.813  11.829  10.640
  132PROX    C254394  14.764  11.654  10.739
  132PROX   H2154395  14.865  11.606  10.737
  132PROX    C354396  14.702  11.599  10.610
  132PROX   H3154397  14.751  11.645  10.521
  132PROX   H3254398  14.727  11.491  10.601
  132PROX   H3354399  14.592  11.613  10.603
  133PROX    O154400  14.704  11.606  10.865
  133PROX    C154401  14.702  11.469  10.878
  133PROX   H1154402  14.625  11.424  10.812
  133PROX   H1354403  14.798  11.417  10.854
  133PROX    C254404  14.666  11.435  11.021
  133PROX   H2154405  14.721  11.502  11.090
  133PROX    C354406  14.685  11.289  11.063
  133PROX   H3154407  14.592  11.227  11.057
  133PROX   H3254408  14.770  11.243  11.009
  133PROX   H3354409  14.716  11.291  11.170
  134PROX    O154410  14.523  11.452  11.038
  134PROX    C154411  14.470  11.583  11.029
  134PROX   H1154412  14.530  11.657  11.085
  134PROX   H1354413  14.467  11.619  10.924
  134PROX    C254414  14.329  11.593  11.095
  134PROX   H2154415  14.316  11.703  11.088
  134PROX    C354416  14.343  11.538  11.246
  134PROX   H3154417  14.352  11.427  11.249
  134PROX   H3254418  14.423  11.598  11.293
  134PROX   H3354419  14.248  11.561  11.299
  135PROX    O154420  14.234  11.520  11.019
  135PROX    C154421  14.112  11.583  11.036
  135PROX   H1154422  14.093  11.615  11.141
  135PROX   H1354423  14.100  11.679  10.982
  135PROX    C254424  13.998  11.492  10.986
  135PROX   H2154425  14.032  11.434  10.898
  135PROX    C354426  13.878  11.581  10.954
  135PROX   H3154427  13.800  11.515  10.909
  135PROX   H3254428  13.851  11.647  11.038
  135PROX   H3354429  13.914  11.653  10.877
  136PROX    O154430  13.942  11.410  11.091
  136PROX    C154431  14.035  11.318  11.137
  136PROX   H1154432  14.136  11.354  11.168
  136PROX   H1354433  13.991  11.256  11.218
  136PROX    C254434  14.064  11.215  11.031
  136PROX   H2154435  14.141  11.258  10.963
  136PROX    C354436  13.939  11.157  10.955
  136PROX   H3154437  13.946  11.070  10.887
  136PROX   H3254438  13.871  11.113  11.031
  136PROX   H3354439  13.893  11.240  10.897
  137PROX    O154440  14.132  11.100  11.090
  137PROX    C154441  14.241  11.133  11.181
  137PROX   H1154442  14.297  11.220  11.140
  137PROX   H1354443  14.199  11.156  11.281
  137PROX    C254444  14.335  11.015  11.202
  137PROX   H2154445  14.412  11.013  11.123
  137PROX    C354446  14.271  10.881  11.218
  137PROX   H3154447  14.214  10.858  11.125
  137PROX   H3254448  14.349  10.805  11.237
  137PROX   H3354449  14.205  10.882  11.307
  138PROX    O154450  14.393  11.023  11.334
  138PROX    C154451  14.500  11.114  11.350
  138PROX   H1154452  14.568  11.117  11.262
  138PROX   H1354453  14.443  11.205  11.378
  138PROX    C254454  14.569  11.074  11.476
  138PROX   H2154455  14.593  10.965  11.473
  138PROX    C354456  14.479  11.110  11.601
  138PROX   H3154457  14.523  11.069  11.695
  138PROX   H3254458  14.473  11.218  11.624
  138PROX   H3354459  14.374  11.079  11.584
  139PROX    O154460  14.696  11.126  11.481
  139PROX    C154461  14.707  11.264  11.512
  139PROX   H1154462  14.623  11.317  11.462
  139PROX   H1354463  14.689  11.286  11.620
  139PROX    C254464  14.832  11.326  11.455
  139PROX   H2154465  14.841  11.315  11.345
  139PROX    C354466  14.948  11.266  11.532
  139PROX   H3154467  15.045  11.288  11.483
  139PROX   H3254468  14.956  11.300  11.638
  139PROX   H3354469  14.939  11.156  11.533
  140PROX    O154470  14.837  11.469  11.474
  140PROX    C154471  14.730  11.534  11.408
  140PROX   H1154472  14.705  11.483  11.313
  140PROX   H1354473  14.643  11.541  11.477
  140PROX    C254474  14.771  11.676  11.361
  140PROX   H2154475  14.843  11.716  11.436
  140PROX    C354476  14.650  11.771  11.360
  140PROX   H3154477  14.572  11.749  11.284
  140PROX   H3254478  14.599  11.783  11.457
  140PROX   H3354479  14.682  11.870  11.320
  141PROX    O154480  14.825  11.674  11.229
  141PROX    C154481  14.952  11.735  11.226
  141PROX   H1154482  14.976  11.761  11.121
  141PROX   H1354483  14.936  11.831  11.279
  141PROX    C254484  15.079  11.663  11.289
  141PROX   H2154485  15.068  11.619  11.390
  141PROX    C354486  15.193  11.763  11.308
  141PROX   H3154487  15.292  11.716  11.324
  141PROX   H3254488  15.194  11.835  11.223
  141PROX   H3354489  15.170  11.824  11.398
  142PROX    O154490  15.134  11.568  11.201
  142PROX    C154491  15.059  11.447  11.210
  142PROX   H1154492  15.063  11.394  11.308
  142PROX   H1354493  14.954  11.470  11.181
  142PROX    C254494  15.105  11.345  11.104
  142PROX   H2154495  15.212  11.327  11.125
  142PROX    C354496  15.088  11.401  10.960
  142PROX   H3154497  14.980  11.415  10.936
  142PROX   H3254498  15.129  11.503  10.942
  142PROX   H3354499  15.133  11.334  10.884
  143PROX    O154500  15.023  11.229  11.115
  143PROX    C154501  15.080  11.131  11.198
  143PROX   H1154502  15.162  11.082  11.141
  143PROX   H1354503  15.116  11.172  11.294
  143PROX    C254504  14.985  11.016  11.225
  143PROX   H2154505  14.884  11.060  11.237
  143PROX    C354506  15.023  10.937  11.350
  143PROX   H3154507  14.936  10.883  11.392
  143PROX   H3254508  15.107  10.866  11.335
  143PROX   H3354509  15.061  11.012  11.423
  144PROX    O154510  14.993  10.933  11.110
  144PROX    C154511  14.911  10.981  11.002
  144PROX   H1154512  14.818  11.020  11.049
  144PROX   H1354513  14.973  11.058  10.951
  144PROX    C254514  14.873  10.869  10.906
  144PROX   H2154515  14.823  10.789  10.963
  144PROX    C354516  15.000  10.811  10.833
  144PROX   H3154517  15.049  10.885  10.767
  144PROX   H3254518  15.071  10.774  10.910
  144PROX   H3354519  14.970  10.726  10.768
  145PROX    O154520  14.782  10.909  10.803
  145PROX    C154521  14.649  10.933  10.849
  145PROX   H1154522  14.609  10.833  10.877
  145PROX   H1354523  14.635  11.005  10.932
  145PROX    C254524  14.561  10.984  10.734
  145PROX   H2154525  14.554  10.908  10.653
  145PROX    C354526  14.608  11.121  10.684
  145PROX   H3154527  14.633  11.190  10.768
  145PROX   H3254528  14.698  11.105  10.621
  145PROX   H3354529  14.517  11.160  10.631
  146PROX    O154530  14.431  11.003  10.786
  146PROX    C154531  14.356  10.886  10.805
  146PROX   H1154532  14.373  10.818  10.719
  146PROX   H1354533  14.374  10.833  10.901
  146PROX    C254534  14.206  10.918  10.803
  146PROX   H2154535  14.183  10.999  10.876
  146PROX    C354536  14.109  10.795  10.832
  146PROX   H3154537  14.145  10.710  10.770
  146PROX   H3254538  14.127  10.770  10.938
  146PROX   H3354539  14.011  10.835  10.798
  147PROX    O154540  14.168  10.961  10.673
  147PROX    C154541  14.162  11.104  10.664
  147PROX   H1154542  14.103  11.147  10.748
  147PROX   H1354543  14.266  11.139  10.682
  147PROX    C254544  14.104  11.153  10.526
  147PROX   H2154545  14.170  11.092  10.461
  147PROX    C354546  14.135  11.300  10.487
  147PROX   H3154547  14.073  11.363  10.554
  147PROX   H3254548  14.238  11.333  10.516
  147PROX   H3354549  14.122  11.340  10.385
  148PROX    O154550  13.960  11.124  10.504
  148PROX    C154551  13.924  10.984  10.508
  148PROX   H1154552  13.951  10.930  10.601
  148PROX   H1354553  13.813  10.981  10.497
  148PROX    C254554  13.976  10.907  10.388
  148PROX   H2154555  14.085  10.921  10.369
  148PROX    C354556  13.914  10.945  10.258
  148PROX   H3154557  13.803  10.951  10.251
  148PROX   H3254558  13.941  11.050  10.234
  148PROX   H3354559  13.942  10.875  10.177
  149PROX    O154560  13.942  10.769  10.399
  149PROX    C154561  14.030  10.693  10.472
  149PROX   H1154562  14.134  10.731  10.461
  149PROX   H1354563  13.997  10.681  10.578
  149PROX    C254564  14.034  10.546  10.411
  149PROX   H2154565  14.040  10.557  10.301
  149PROX    C354566  13.902  10.470  10.422
  149PROX   H3154567  13.847  10.483  10.327
  149PROX   H3254568  13.920  10.360  10.420
  149PROX   H3354569  13.845  10.502  10.512
  150PROX    O154570  14.149  10.472  10.449
  150PROX    C154571  14.135  10.431  10.588
  150PROX   H1154572  14.087  10.498  10.662
  150PROX   H1354573  14.069  10.341  10.588
  150PROX    C254574  14.276  10.398  10.639
  150PROX   H2154575  14.263  10.382  10.748
  150PROX    C354576  14.371  10.509  10.612
  150PROX   H3154577  14.313  10.604  10.615
  150PROX   H3254578  14.449  10.520  10.690
  150PROX   H3354579  14.415  10.492  10.511
  151PROX    O154580  14.318  10.276  10.582
  151PROX    C154581  14.452  10.237  10.612
  151PROX   H1154582  14.523  10.284  10.540
  151PROX   H1354583  14.488  10.272  10.711
  151PROX    C254584  14.462  10.080  10.599
  151PROX   H2154585  14.391  10.023  10.663
  151PROX    C354586  14.602  10.035  10.634
  151PROX   H3154587  14.674  10.058  10.553
  151PROX   H3254588  14.641  10.091  10.721
  151PROX   H3354589  14.613   9.930  10.670
  152PROX    O154590  14.436  10.052  10.458
  152PROX    C154591  14.297  10.009  10.440
  152PROX   H1154592  14.278   9.919  10.501
  152PROX   H1354593  14.232  10.087  10.487
  152PROX    C254594  14.260   9.989  10.293
  152PROX   H2154595  14.149   9.993  10.293
  152PROX    C354596  14.310   9.865  10.218
  152PROX   H3154597  14.274   9.766  10.252
  152PROX   H3254598  14.269   9.874  10.114
  152PROX   H3354599  14.420   9.852  10.223
  153PROX    O154600  14.321  10.087  10.208
  153PROX    C154601  14.241  10.211  10.212
  153PROX   H1154602  14.138  10.176  10.192
  153PROX   H1354603  14.246  10.249  10.317
  153PROX    C254604  14.280  10.325  10.114
  153PROX   H2154605  14.219  10.416  10.135
  153PROX    C354606  14.232  10.306   9.972
  153PROX   H3154607  14.276  10.217   9.921
  153PROX   H3254608  14.129  10.262   9.970
  153PROX   H3354609  14.237  10.401   9.916
  154PROX    O154610  14.418  10.346  10.123
  154PROX    C154611  14.456  10.415  10.235
  154PROX   H1154612  14.401  10.512  10.236
  154PROX   H1354613  14.442  10.359  10.330
  154PROX    C254614  14.609  10.448  10.239
  154PROX   H2154615  14.635  10.507  10.148
  154PROX    C354616  14.693  10.318  10.240
  154PROX   H3154617  14.803  10.331  10.252
  154PROX   H3254618  14.659  10.247  10.317
  154PROX   H3354619  14.677  10.272  10.140
  155PROX    O154620  14.631  10.521  10.355
  155PROX    C154621  14.748  10.602  10.356
  155PROX   H1154622  14.838  10.536  10.357
  155PROX   H1354623  14.746  10.670  10.268
  155PROX    C254624  14.754  10.685  10.492
  155PROX   H2154625  14.844  10.751  10.485
  155PROX    C354626  14.765  10.606  10.622
  155PROX   H3154627  14.763  10.668  10.714
  155PROX   H3254628  14.690  10.526  10.641
  155PROX   H3354629  14.859  10.546  10.621
  156PROX    O154630  14.636  10.765  10.494
  156PROX    C154631  14.639  10.872  10.400
  156PROX   H1154632  14.707  10.946  10.448
  156PROX   H1354633  14.675  10.842  10.300
  156PROX    C254634  14.508  10.940  10.380
  156PROX   H2154635  14.500  11.007  10.468
  156PROX    C354636  14.388  10.845  10.385
  156PROX   H3154637  14.296  10.904  10.360
  156PROX   H3254638  14.413  10.757  10.323
  156PROX   H3354639  14.371  10.808  10.488
  157PROX    O154640  14.510  11.015  10.256
  157PROX    C154641  14.407  11.120  10.251
  157PROX   H1154642  14.340  11.133  10.338
  157PROX   H1354643  14.461  11.217  10.250
  157PROX    C254644  14.329  11.120  10.120
  157PROX   H2154645  14.395  11.141  10.034
  157PROX    C354646  14.220  11.233  10.120
  157PROX   H3154647  14.147  11.217  10.202
  157PROX   H3254648  14.267  11.333  10.129
  157PROX   H3354649  14.151  11.235  10.032
  158PROX    O154650  14.249  11.003  10.108
  158PROX    C154651  14.302  10.913  10.012
  158PROX   H1154652  14.320  10.967   9.916
  158PROX   H1354653  14.392  10.875  10.066
  158PROX    C254654  14.228  10.788   9.981
  158PROX   H2154655  14.130  10.823   9.941
  158PROX    C354656  14.212  10.695  10.103
  158PROX   H3154657  14.312  10.669  10.142
  158PROX   H3254658  14.162  10.754  10.182
  158PROX   H3354659  14.152  10.605  10.075
  159PROX    O154660  14.291  10.724   9.870
  159PROX    C154661  14.418  10.665   9.887
  159PROX   H1154662  14.438  10.633   9.992
  159PROX   H1354663  14.414  10.572   9.828
  159PROX    C254664  14.538  10.740   9.826
  159PROX   H2154665  14.543  10.849   9.846
  159PROX    C354666  14.529  10.726   9.675
  159PROX   H3154667  14.532  10.619   9.644
  159PROX   H3254668  14.436  10.771   9.634
  159PROX   H3354669  14.620  10.774   9.631
  160PROX    O154670  14.661  10.679   9.864
  160PROX    C154671  14.701  10.726   9.992
  160PROX   H1154672  14.617  10.736  10.064
  160PROX   H1354673  14.778  10.651  10.021
  160PROX    C254674  14.780  10.859   9.982
  160PROX   H2154675  14.718  10.936   9.932
  160PROX    C354676  14.912  10.842   9.899
  160PROX   H3154677  14.933  10.939   9.849
  160PROX   H3254678  14.998  10.835   9.969
  160PROX   H3354679  14.909  10.771   9.813
  161PROX    O154680  14.819  10.903  10.109
  161PROX    C154681  14.817  11.045  10.117
  161PROX   H1154682  14.819  11.093  10.017
  161PROX   H1354683  14.723  11.076  10.166
  161PROX    C254684  14.924  11.112  10.205
  161PROX   H2154685  14.891  11.217  10.217
  161PROX    C354686  15.068  11.103  10.152
  161PROX   H3154687  15.061  11.148  10.050
  161PROX   H3254688  15.144  11.163  10.205
  161PROX   H3354689  15.107  10.999  10.139
  162PROX    O154690  14.929  11.051  10.332
  162PROX    C154691  14.968  11.144  10.429
  162PROX   H1154692  15.061  11.200  10.407
  162PROX   H1354693  14.883  11.210  10.456
  162PROX    C254694  15.006  11.067  10.559
  162PROX   H2154695  14.930  10.992  10.592
  162PROX    C354696  15.014  11.163  10.676
  162PROX   H3154697  14.918  11.217  10.684
  162PROX   H3254698  15.035  11.109  10.771
  162PROX   H3354699  15.104  11.229  10.672
  163PROX    O154700  15.131  10.998  10.546
  163PROX    C154701  15.115  10.866  10.490
  163PROX   H1154702  15.045  10.798  10.543
  163PROX   H1354703  15.071  10.868  10.388
  163PROX    C254704  15.252  10.792  10.476
  163PROX   H2154705  15.305  10.783  10.573
  163PROX    C354706  15.343  10.865  10.371
  163PROX   H3154707  15.435  10.805  10.352
  163PROX   H3254708  15.293  10.876  10.273
  163PROX   H3354709  15.372  10.968  10.401
  164PROX    O154710  15.217  10.671  10.412
  164PROX    C154711  15.306  10.567  10.447
  164PROX   H1154712  15.412  10.601  10.441
  164PROX   H1354713  15.298  10.548  10.556
  164PROX    C254714  15.270  10.439  10.369
  164PROX   H2154715  15.178  10.392  10.408
  164PROX    C354716  15.375  10.324  10.391
  164PROX   H3154717  15.482  10.353  10.385
  164PROX   H3254718  15.353  10.277  10.490
  164PROX   H3354719  15.356  10.243  10.318
  165PROX    O154720  15.275  10.458  10.232
  165PROX    C154721  15.208  10.364  10.153
  165PROX   H1154722  15.273  10.279  10.124
  165PROX   H1354723  15.124  10.320  10.210
  165PROX    C254724  15.151  10.425  10.029
  165PROX   H2154725  15.231  10.457   9.959
  165PROX    C354726  15.078  10.558  10.050
  165PROX   H3154727  15.065  10.607   9.951
  165PROX   H3254728  14.981  10.551  10.104
  165PROX   H3354729  15.141  10.619  10.117
  166ETHO    O154730  15.064  10.328   9.967
  166ETHO    C154731  15.142  10.269   9.867
  166ETHO   H1154732  15.225  10.210   9.913
  166ETHO   H1354733  15.178  10.346   9.796
  166ETHO    C254734  15.046  10.167   9.796
  166ETHO   H2154735  15.073  10.152   9.690
  166ETHO   H2354736  14.941  10.195   9.823
  167ETHO    O154737  15.072  10.047   9.861
  167ETHO    C154738  14.973   9.948   9.823
  167ETHO   H1154739  14.978   9.865   9.897
  167ETHO   H1354740  14.870   9.987   9.839
  167ETHO    C254741  14.980   9.892   9.678
  167ETHO   H2154742  15.003   9.967   9.599
  167ETHO   H2354743  14.880   9.852   9.651
  168ETHO    O154744  15.076   9.784   9.665
  168ETHO    C154745  15.043   9.681   9.567
  168ETHO   H1154746  15.138   9.635   9.531
  168ETHO   H1354747  14.981   9.728   9.487
  168ETHO    C254748  14.947   9.572   9.620
  168ETHO   H2154749  14.924   9.500   9.539
  168ETHO   H2354750  14.850   9.618   9.649
  169ETHO    O154751  15.018   9.504   9.724
  169ETHO    C154752  14.922   9.457   9.822
  169ETHO   H1154753  14.855   9.542   9.845
  169ETHO   H1354754  14.876   9.374   9.763
  169ETHO    C254755  15.001   9.408   9.945
  169ETHO   H2154756  14.926   9.391  10.024
  169ETHO   H2354757  15.066   9.494   9.973
  170ETHO    O154758  15.075   9.293   9.920
  170ETHO    C154759  15.128   9.239  10.041
  170ETHO   H1154760  15.163   9.137  10.014
  170ETHO   H1354761  15.048   9.247  10.118
  170ETHO    C254762  15.252   9.311  10.087
  170ETHO   H2154763  15.345   9.316  10.028
  170ETHO   H2354764  15.286   9.251  10.174
  171ETHO    O154765  15.219   9.446  10.138
  171ETHO    C154766  15.328   9.509  10.198
  171ETHO   H1154767  15.409   9.524  10.123
  171ETHO   H1354768  15.292   9.608  10.233
  171ETHO    C254769  15.397   9.438  10.319
  171ETHO   H2154770  15.326   9.402  10.396
  171ETHO   H2354771  15.459   9.522  10.357
  172ETHO    O154772  15.486   9.336  10.268
  172ETHO    C154773  15.496   9.234  10.369
  172ETHO   H1154774  15.390   9.210  10.393
  172ETHO   H1354775  15.538   9.261  10.468
  172ETHO    C254776  15.557   9.101  10.318
  172ETHO   H2154777  15.539   9.027  10.398
  172ETHO   H2354778  15.666   9.116  10.300
  173ETHO    O154779  15.489   9.058  10.203
  173ETHO    C154780  15.470   8.915  10.200
  173ETHO   H1154781  15.565   8.856  10.200
  173ETHO   H1354782  15.410   8.882  10.287
  173ETHO    C254783  15.392   8.889  10.073
  173ETHO   H2154784  15.335   8.794  10.079
  173ETHO   H2354785  15.316   8.968  10.054
  174ETHO    O154786  15.474   8.880   9.952
  174ETHO    C154787  15.400   8.807   9.851
  174ETHO   H1154788  15.337   8.724   9.889
  174ETHO   H1354789  15.329   8.884   9.813
  174ETHO    C254790  15.500   8.767   9.741
  174ETHO   H2154791  15.584   8.839   9.740
  174ETHO   H2354792  15.455   8.771   9.640
  175ETHO    O154793  15.555   8.640   9.770
  175ETHO    C154794  15.647   8.586   9.672
  175ETHO   H1154795  15.593   8.583   9.575
  175ETHO   H1354796  15.731   8.657   9.660
  175ETHO    C254797  15.699   8.448   9.708
  175ETHO   H2154798  15.605   8.390   9.721
  175ETHO   H2354799  15.749   8.451   9.807
  176ETHO    O154800  15.773   8.386   9.599
  176ETHO    C154801  15.899   8.445   9.584
  176ETHO   H1154802  15.906   8.545   9.535
  176ETHO   H1354803  15.934   8.451   9.690
  176ETHO    C254804  15.983   8.340   9.512
  176ETHO   H2154805  15.946   8.237   9.534
  176ETHO   H2354806  16.088   8.336   9.546
  177ETHO    O154807  15.980   8.369   9.372
  177ETHO    C154808  16.076   8.290   9.294
  177ETHO   H1154809  16.066   8.183   9.323
  177ETHO   H1354810  16.177   8.326   9.324
  177ETHO    C254811  16.055   8.310   9.147
  177ETHO   H2154812  16.144   8.276   9.091
  177ETHO   H2354813  16.039   8.418   9.130
  178ETHO    O154814  15.944   8.237   9.111
  178ETHO    C154815  15.957   8.170   8.986
  178ETHO   H1154816  16.017   8.223   8.908
  178ETHO   H1354817  16.000   8.068   8.992
  178ETHO    C254818  15.811   8.145   8.938
  178ETHO   H2154819  15.759   8.243   8.941
  178ETHO   H2354820  15.758   8.077   9.009
  179ETHO    O154821  15.825   8.081   8.802
  179ETHO    C154822  15.857   8.180   8.703
  179ETHO   H1154823  15.967   8.185   8.688
  179ETHO   H1354824  15.820   8.278   8.737
  179ETHO    C254825  15.787   8.157   8.566
  179ETHO   H2154826  15.799   8.050   8.537
  179ETHO   H2354827  15.817   8.228   8.486
  180ETHO    O154828  15.649   8.162   8.581
  180ETHO    C154829  15.578   8.195   8.459
  180ETHO   H1154830  15.525   8.291   8.475
  180ETHO   H1354831  15.653   8.214   8.378
  180ETHO    C254832  15.494   8.083   8.401
  180ETHO   H2154833  15.419   8.061   8.479
  180ETHO   H2354834  15.543   7.986   8.377
  181ETHO    O154835  15.419   8.136   8.292
  181ETHO    C154836  15.306   8.051   8.270
  181ETHO   H1154837  15.229   8.082   8.344
  181ETHO   H1354838  15.333   7.945   8.286
  181ETHO    C254839  15.252   8.070   8.130
  181ETHO   H2154840  15.226   8.175   8.106
  181ETHO   H2354841  15.152   8.024   8.113
  182ETHO    O154842  15.339   8.013   8.035
  182ETHO    C154843  15.282   8.029   7.907
  182ETHO   H1154844  15.186   7.972   7.912
  182ETHO   H1354845  15.278   8.137   7.881
  182ETHO    C254846  15.388   7.956   7.816
  182ETHO   H2154847  15.337   7.949   7.718
  182ETHO   H2354848  15.391   7.853   7.857
  183ETHO    O154849  15.513   8.030   7.830
  183ETHO    C154850  15.610   7.958   7.761
  183ETHO   H1154851  15.591   7.979   7.653
  183ETHO   H1354852  15.590   7.850   7.777
  183ETHO    C254853  15.744   7.994   7.809
  183ETHO   H2154854  15.814   7.908   7.797
  183ETHO   H2354855  15.739   7.997   7.920
  184ETHO    O154856  15.801   8.118   7.766
  184ETHO    C154857  15.894   8.172   7.860
  184ETHO   H1154858  15.838   8.242   7.926
  184ETHO   H1354859  15.945   8.098   7.926
  184ETHO    C254860  15.998   8.271   7.800
  184ETHO   H2154861  16.049   8.334   7.876
  184ETHO   H2354862  15.946   8.352   7.745
  185ETHO    O154863  16.098   8.200   7.725
  185ETHO    C154864  16.199   8.131   7.806
  185ETHO   H1154865  16.271   8.212   7.831
  185ETHO   H1354866  16.150   8.092   7.898
  185ETHO    C254867  16.269   8.022   7.724
  185ETHO   H2154868  16.350   7.978   7.787
  185ETHO   H2354869  16.311   8.070   7.633
  186ETHO    O154870  16.168   7.930   7.700
  186ETHO    C154871  16.204   7.800   7.655
  186ETHO   H1154872  16.239   7.797   7.550
  186ETHO   H1354873  16.294   7.784   7.719
  186ETHO    C254874  16.089   7.699   7.661
  186ETHO   H2154875  16.036   7.717   7.757
  186ETHO   H2354876  16.133   7.597   7.658
  187ETHO    O154877  15.996   7.703   7.555
  187ETHO    C154878  15.874   7.627   7.591
  187ETHO   H1154879  15.907   7.537   7.648
  187ETHO   H1354880  15.804   7.690   7.650
  187ETHO    C254881  15.800   7.577   7.471
  187ETHO   H2154882  15.788   7.646   7.384
  187ETHO   H2354883  15.698   7.561   7.510
  188ETHO    O154884  15.848   7.450   7.420
  188ETHO    C154885  15.771   7.403   7.313
  188ETHO   H1154886  15.801   7.457   7.220
  188ETHO   H1354887  15.662   7.415   7.326
  188ETHO    C254888  15.787   7.249   7.297
  188ETHO   H2154889  15.889   7.225   7.332
  188ETHO   H2354890  15.786   7.227   7.188
  189ETHO    O154891  15.689   7.176   7.358
  189ETHO    C154892  15.695   7.178   7.498
  189ETHO   H1154893  15.795   7.185   7.545
  189ETHO   H1354894  15.638   7.265   7.538
  189ETHO    C254895  15.625   7.054   7.545
  189ETHO   H2154896  15.517   7.052   7.521
  189ETHO   H2354897  15.635   7.054   7.656
  190ETHO    O154898  15.667   6.936   7.481
  190ETHO    C154899  15.672   6.822   7.569
  190ETHO   H1154900  15.567   6.801   7.598
  190ETHO   H1354901  15.733   6.852   7.657
  190ETHO    C254902  15.749   6.692   7.523
  190ETHO   H2154903  15.748   6.615   7.603
  190ETHO   H2354904  15.855   6.718   7.501
  191ETHO    O154905  15.683   6.645   7.407
  191ETHO    C154906  15.757   6.556   7.324
  191ETHO   H1154907  15.697   6.553   7.231
  191ETHO   H1354908  15.858   6.601   7.311
  191ETHO    C254909  15.779   6.408   7.368
  191ETHO   H2154910  15.810   6.394   7.474
  191ETHO   H2354911  15.862   6.380   7.300
  192ETHO    O154912  15.665   6.323   7.328
  192ETHO    C154913  15.562   6.324   7.421
  192ETHO   H1154914  15.474   6.303   7.357
  192ETHO   H1354915  15.540   6.424   7.465
  192ETHO    C254916  15.580   6.226   7.537
  192ETHO   H2154917  15.602   6.125   7.497
  192ETHO   H2354918  15.478   6.222   7.580
  193ETHO    O154919  15.675   6.266   7.632
  193ETHO    C154920  15.612   6.277   7.760
  193ETHO   H1154921  15.531   6.352   7.768
  193ETHO   H1354922  15.553   6.188   7.791
  193ETHO    C254923  15.712   6.324   7.873
  193ETHO   H2154924  15.810   6.282   7.842
  193ETHO   H2354925  15.688   6.261   7.962
  194ETHO    O154926  15.712   6.466   7.895
  194ETHO    C154927  15.780   6.495   8.017
  194ETHO   H1154928  15.882   6.451   8.017
  194ETHO   H1354929  15.727   6.462   8.109
  194ETHO    C254930  15.792   6.645   8.028
  194ETHO   H2154931  15.852   6.673   7.939
  194ETHO   H2354932  15.851   6.671   8.119
  195ETHO    O154933  15.666   6.713   8.033
  195ETHO    C154934  15.682   6.845   8.056
  195ETHO   H1154935  15.712   6.855   8.162
  195ETHO   H1354936  15.769   6.866   7.990
  195ETHO    C254937  15.553   6.923   8.007
  195ETHO   H2154938  15.495   6.870   7.929
  195ETHO   H2354939  15.592   7.022   7.973
  196ETHO    O154940  15.464   6.960   8.102
  196ETHO    C154941  15.343   7.007   8.046
  196ETHO   H1154942  15.361   7.104   7.996
  196ETHO   H1354943  15.326   6.945   7.955
  196ETHO    C254944  15.219   7.016   8.140
  196ETHO   H2154945  15.211   6.923   8.201
  196ETHO   H2354946  15.126   7.026   8.080
  197ETHO    O154947  15.236   7.126   8.226
  197ETHO    C154948  15.323   7.102   8.336
  197ETHO   H1154949  15.301   6.999   8.373
  197ETHO   H1354950  15.424   7.106   8.292
  197ETHO    C254951  15.318   7.219   8.434
  197ETHO   H2154952  15.359   7.304   8.376
  197ETHO   H2354953  15.388   7.215   8.520
  198ETHO    O154954  15.185   7.259   8.483
  198ETHO    C154955  15.194   7.357   8.588
  198ETHO   H1154956  15.237   7.306   8.677
  198ETHO   H1354957  15.253   7.444   8.552
  198ETHO    C254958  15.052   7.403   8.620
  198ETHO   H2154959  14.990   7.438   8.535
  198ETHO   H2354960  15.062   7.488   8.690
  199ETHO    O154961  14.983   7.318   8.706
  199ETHO    C154962  14.979   7.342   8.845
  199ETHO   H1154963  14.922   7.437   8.858
  199ETHO   H1354964  15.080   7.350   8.889
  199ETHO    C254965  14.900   7.225   8.903
  199ETHO   H2154966  14.802   7.221   8.850
  199ETHO   H2354967  14.885   7.248   9.010
  200ETHO    O154968  14.970   7.099   8.883
  200ETHO    C154969  14.899   6.989   8.932
  200ETHO   H1154970  14.859   7.025   9.029
  200ETHO   H1354971  14.813   6.974   8.864
  200ETHO    C254972  14.980   6.862   8.946
  200ETHO   H2154973  15.016   6.826   8.847
  200ETHO   H2354974  14.910   6.783   8.980
  201ETHO    O154975  15.087   6.860   9.039
  201ETHO    C154976  15.183   6.754   9.010
  201ETHO   H1154977  15.253   6.778   8.927
  201ETHO   H1354978  15.125   6.659   9.000
  201ETHO    C254979  15.272   6.748   9.130
  201ETHO   H2154980  15.323   6.845   9.149
  201ETHO   H2354981  15.355   6.679   9.107
  202ETHO    O154982  15.200   6.692   9.240
  202ETHO    C154983  15.284   6.678   9.348
  202ETHO   H1154984  15.363   6.604   9.324
  202ETHO   H1354985  15.332   6.775   9.372
  202ETHO    C254986  15.203   6.637   9.470
  202ETHO   H2154987  15.261   6.603   9.558
  202ETHO   H2354988  15.132   6.554   9.452
  203ETHO    O154989  15.133   6.753   9.524
  203ETHO    C154990  15.040   6.712   9.621
  203ETHO   H1154991  15.086   6.666   9.711
  203ETHO   H1354992  14.983   6.627   9.578
  203ETHO    C254993  14.959   6.839   9.656
  203ETHO   H2154994  14.864   6.799   9.697
  203ETHO   H2354995  14.936   6.893   9.561
  204ETHO    O154996  15.031   6.925   9.743
  204ETHO    C154997  14.958   7.047   9.757
  204ETHO   H1154998  14.933   7.083   9.655
  204ETHO   H1354999  14.869   7.032   9.822
  204ETHO    C255000  15.050   7.150   9.826
  204ETHO   H2155001  15.121   7.104   9.898
  204ETHO   H2355002  14.986   7.227   9.874
  205ETHO    O155003  15.121   7.209   9.718
  205ETHO    C155004  15.197   7.320   9.760
  205ETHO   H1155005  15.172   7.343   9.866
  205ETHO   H1355006  15.174   7.405   9.692
  205ETHO    C255007  15.355   7.288   9.756
  205ETHO   H2155008  15.377   7.219   9.840
  205ETHO   H2355009  15.405   7.385   9.780
  206ETHO    O155010  15.409   7.238   9.633
  206ETHO    C155011  15.533   7.166   9.635
  206ETHO   H1155012  15.532   7.086   9.711
  206ETHO   H1355013  15.559   7.108   9.544
  206ETHO    C255014  15.648   7.253   9.681
  206ETHO   H2155015  15.614   7.307   9.772
  206ETHO   H2355016  15.732   7.185   9.704
  207ETHO    O155017  15.709   7.339   9.587
  207ETHO    C155018  15.616   7.430   9.514
  207ETHO   H1155019  15.534   7.456   9.585
  207ETHO   H1355020  15.574   7.355   9.444
  207ETHO    C255021  15.690   7.566   9.474
  207ETHO   H2155022  15.655   7.606   9.376
  207ETHO   H2355023  15.797   7.539   9.462
  208ETHO    O155024  15.678   7.680   9.565
  208ETHO    C155025  15.774   7.657   9.666
  208ETHO   H1155026  15.750   7.566   9.724
  208ETHO   H1355027  15.873   7.650   9.616
  208ETHO    C255028  15.783   7.779   9.763
  208ETHO   H2155029  15.710   7.762   9.846
  208ETHO   H2355030  15.765   7.881   9.723
  209ETHO    O155031  15.910   7.773   9.819
  209ETHO    C155032  15.907   7.855   9.930
  209ETHO   H1155033  15.832   7.824  10.006
  209ETHO   H1355034  15.883   7.960   9.901
  209ETHO    C255035  16.048   7.851   9.991
  209ETHO   H2155036  16.120   7.862   9.907
  209ETHO   H2355037  16.072   7.756  10.045
  210ETHO    O155038  16.072   7.957  10.087
  210ETHO    C155039  16.165   8.059  10.048
  210ETHO   H1155040  16.259   8.001  10.049
  210ETHO   H1355041  16.152   8.101   9.946
  210ETHO    C255042  16.178   8.165  10.158
  210ETHO   H2155043  16.260   8.237  10.141
  210ETHO   H2355044  16.224   8.115  10.246
  211ETHO    O155045  16.062   8.234  10.164
  211ETHO    C155046  16.047   8.299  10.290
  211ETHO   H1155047  16.060   8.220  10.367
  211ETHO   H1355048  16.111   8.386  10.315
  211ETHO    C255049  15.900   8.352  10.311
  211ETHO   H2155050  15.895   8.397  10.413
  211ETHO   H2355051  15.822   8.278  10.286
  212ETHO    O155052  15.886   8.464  10.224
  212ETHO    C155053  15.754   8.527  10.231
  212ETHO   H1155054  15.741   8.597  10.146
  212ETHO   H1355055  15.672   8.452  10.235
  212ETHO    C255056  15.729   8.611  10.356
  212ETHO   H2155057  15.746   8.545  10.444
  212ETHO   H2355058  15.621   8.634  10.341
  213ETHO    O155059  15.809   8.729  10.361
  213ETHO    C155060  15.780   8.786  10.485
  213ETHO   H1155061  15.677   8.824  10.502
  213ETHO   H1355062  15.808   8.723  10.572
  213ETHO    C255063  15.860   8.912  10.504
  213ETHO   H2155064  15.834   8.965  10.598
  213ETHO   H2355065  15.850   8.965  10.407
  214ETHO    O155066  15.999   8.875  10.516
  214ETHO    C155067  16.082   8.984  10.463
  214ETHO   H1155068  16.049   8.998  10.358
  214ETHO   H1355069  16.186   8.948  10.450
  214ETHO    C255070  16.090   9.111  10.541
  214ETHO   H2155071  16.190   9.153  10.516
  214ETHO   H2355072  16.080   9.091  10.649
  215ETHO    O155073  15.992   9.202  10.499
  215ETHO    C155074  16.016   9.330  10.547
  215ETHO   H1155075  16.020   9.325  10.658
  215ETHO   H1355076  16.121   9.360  10.525
  215ETHO    C255077  15.926   9.444  10.494
  215ETHO   H2155078  15.946   9.531  10.560
  215ETHO   H2355079  15.819   9.415  10.504
  216ETHO    O155080  15.952   9.482  10.364
  216ETHO    C155081  15.948   9.627  10.336
  216ETHO   H1155082  16.054   9.656  10.349
  216ETHO   H1355083  15.880   9.681  10.406
  216ETHO    C255084  15.903   9.647  10.195
  216ETHO   H2155085  15.982   9.595  10.136
  216ETHO   H2355086  15.910   9.753  10.160
  217ETHO    O155087  15.778   9.593  10.152
  217ETHO    C155088  15.787   9.518  10.033
  217ETHO   H1155089  15.837   9.581   9.956
  217ETHO   H1355090  15.850   9.430  10.054
  217ETHO    C255091  15.651   9.478   9.985
  217ETHO   H2155092  15.583   9.566   9.972
  217ETHO   H2355093  15.603   9.410  10.059
  218ETHO    O155094  15.672   9.419   9.858
  218ETHO    C155095  15.590   9.304   9.826
  218ETHO   H1155096  15.616   9.277   9.722
  218ETHO   H1355097  15.485   9.339   9.824
  218ETHO    C255098  15.617   9.184   9.915
  218ETHO   H2155099  15.557   9.095   9.886
  218ETHO   H2355100  15.591   9.207  10.021
  219ETHO    O155101  15.747   9.136   9.911
  219ETHO    C155102  15.773   9.042  10.011
  219ETHO   H1155103  15.761   9.078  10.116
  219ETHO   H1355104  15.698   8.960  10.008
  219ETHO    C255105  15.915   8.981  10.006
  219ETHO   H2155106  15.915   8.912  10.094
  219ETHO   H2355107  15.994   9.057  10.023
  220ETHO    O155108  15.945   8.898   9.894
  220ETHO    C155109  15.882   8.771   9.891
  220ETHO   H1155110  15.873   8.755   9.781
  220ETHO   H1355111  15.780   8.792   9.931
  220ETHO    C255112  15.941   8.646   9.957
  220ETHO   H2155113  15.869   8.565   9.933
  220ETHO   H2355114  15.964   8.656  10.065
  221ETHO    O155115  16.059   8.613   9.878
  221ETHO    C155116  16.135   8.510   9.942
  221ETHO   H1155117  16.190   8.549  10.031
  221ETHO   H1355118  16.069   8.434   9.989
  221ETHO    C255119  16.229   8.461   9.834
  221ETHO   H2155120  16.283   8.544   9.784
  221ETHO   H2355121  16.170   8.424   9.747
  222ETHO    O155122  16.325   8.371   9.875
  222ETHO    C155123  16.416   8.334   9.773
  222ETHO   H1155124  16.411   8.393   9.679
  222ETHO   H1355125  16.521   8.346   9.807
  222ETHO    C255126  16.397   8.182   9.743
  222ETHO   H2155127  16.408   8.132   9.841
  222ETHO   H2355128  16.473   8.148   9.668
  223ETHO    O155129  16.270   8.147   9.696
  223ETHO    C155130  16.277   8.014   9.655
  223ETHO   H1155131  16.345   7.984   9.572
  223ETHO   H1355132  16.298   7.959   9.749
  223ETHO    C255133  16.144   7.944   9.622
  223ETHO   H2155134  16.069   7.982   9.695
  223ETHO   H2355135  16.161   7.835   9.634
  224ETHO    O155136  16.102   7.955   9.486
  224ETHO    C155137  15.966   7.917   9.469
  224ETHO   H1155138  15.950   7.813   9.504
  224ETHO   H1355139  15.907   7.991   9.528
  224ETHO    C255140  15.920   7.903   9.323
  224ETHO   H2155141  15.937   8.003   9.277
  224ETHO   H2355142  15.810   7.889   9.320
  225ETHO    O155143  15.981   7.787   9.263
  225ETHO    C155144  15.923   7.735   9.145
  225ETHO   H1155145  15.935   7.811   9.065
  225ETHO   H1355146  15.813   7.729   9.158
  225ETHO    C255147  15.969   7.595   9.087
  225ETHO   H2155148  16.079   7.608   9.076
  225ETHO   H2355149  15.928   7.574   8.986
  226ETHO    O155150  15.942   7.491   9.170
  226ETHO    C155151  16.006   7.362   9.141
  226ETHO   H1155152  15.969   7.323   9.044
  226ETHO   H1355153  16.112   7.386   9.118
  226ETHO    C255154  16.002   7.265   9.259
  226ETHO   H2155155  16.066   7.177   9.238
  226ETHO   H2355156  15.899   7.224   9.261
  227ETHO    O155157  16.048   7.331   9.381
  227ETHO    C155158  16.027   7.232   9.486
  227ETHO   H1155159  16.037   7.128   9.447
  227ETHO   H1355160  15.922   7.235   9.523
  227ETHO    C255161  16.130   7.236   9.597
  227ETHO   H2155162  16.091   7.164   9.672
  227ETHO   H2355163  16.144   7.331   9.654
  228ETHO    O155164  16.251   7.207   9.532
  228ETHO    C155165  16.348   7.174   9.629
  228ETHO   H1155166  16.384   7.271   9.670
  228ETHO   H1355167  16.310   7.114   9.715
  228ETHO    C255168  16.465   7.097   9.567
  228ETHO   H2155169  16.544   7.076   9.642
  228ETHO   H2355170  16.496   7.163   9.483
  229ETHO    O155171  16.416   6.973   9.509
  229ETHO    C155172  16.366   6.977   9.379
  229ETHO   H1155173  16.420   7.051   9.315
  229ETHO   H1355174  16.259   7.007   9.391
  229ETHO    C255175  16.374   6.838   9.316
  229ETHO   H2155176  16.310   6.839   9.226
  229ETHO   H2355177  16.320   6.773   9.387
  230ETHO    O155178  16.509   6.801   9.285
  230ETHO    C155179  16.510   6.670   9.245
  230ETHO   H1155180  16.440   6.606   9.304
  230ETHO   H1355181  16.479   6.670   9.138
  230ETHO    C255182  16.648   6.602   9.227
  230ETHO   H2155183  16.712   6.659   9.158
  230ETHO   H2355184  16.627   6.505   9.177
  231ETHO    O155185  16.725   6.607   9.347
  231ETHO    C155186  16.744   6.475   9.397
  231ETHO   H1155187  16.643   6.431   9.412
  231ETHO   H1355188  16.783   6.489   9.500
  231ETHO    C255189  16.843   6.380   9.323
  231ETHO   H2155190  16.821   6.396   9.215
  231ETHO   H2355191  16.806   6.278   9.348
  232ETHO    O155192  16.983   6.400   9.353
  232ETHO    C155193  17.060   6.292   9.302
  232ETHO   H1155194  17.017   6.247   9.210
  232ETHO   H1355195  17.161   6.335   9.282
  232ETHO    C255196  17.090   6.180   9.407
  232ETHO   H2155197  17.094   6.219   9.511
  232ETHO   H2355198  17.192   6.140   9.391
  233ETHO    O155199  16.989   6.075   9.404
  233ETHO    C155200  17.014   5.973   9.502
  233ETHO   H1155201  17.085   5.903   9.453
  233ETHO   H1355202  17.057   6.020   9.593
  233ETHO    C255203  16.895   5.884   9.550
  233ETHO   H2155204  16.944   5.795   9.596
  233ETHO   H2355205  16.833   5.857   9.463
  234ETHO    O155206  16.802   5.952   9.643
  234ETHO    C155207  16.682   5.888   9.671
  234ETHO   H1155208  16.621   5.901   9.579
  234ETHO   H1355209  16.708   5.783   9.698
  234ETHO    C255210  16.610   5.932   9.801
  234ETHO   H2155211  16.665   5.889   9.887
  234ETHO   H2355212  16.508   5.887   9.797
  235ETHO    O155213  16.602   6.073   9.792
  235ETHO    C155214  16.545   6.117   9.907
  235ETHO   H1155215  16.438   6.094   9.924
  235ETHO   H1355216  16.598   6.059   9.986
  235ETHO    C255217  16.580   6.267   9.930
  235ETHO   H2155218  16.522   6.305  10.016
  235ETHO   H2355219  16.541   6.314   9.837
  236ETHO    O155220  16.719   6.286   9.954
  236ETHO    C155221  16.757   6.420   9.965
  236ETHO   H1155222  16.721   6.458  10.063
  236ETHO   H1355223  16.722   6.482   9.879
  236ETHO    C255224  16.911   6.436   9.964
  236ETHO   H2155225  16.950   6.397  10.061
  236ETHO   H2355226  16.945   6.541   9.954
  237ETHO    O155227  16.969   6.342   9.866
  237ETHO    C155228  16.962   6.395   9.731
  237ETHO   H1155229  16.969   6.310   9.659
  237ETHO   H1355230  16.862   6.432   9.700
  237ETHO    C255231  17.081   6.483   9.709
  237ETHO   H2155232  17.106   6.536   9.804
  237ETHO   H2355233  17.053   6.562   9.636
  238ETHO    O155234  17.199   6.408   9.667
  238ETHO    C155235  17.318   6.494   9.658
  238ETHO   H1155236  17.364   6.470   9.756
  238ETHO   H1355237  17.292   6.602   9.664
  238ETHO    C255238  17.416   6.453   9.543
  238ETHO   H2155239  17.430   6.343   9.546
  238ETHO   H2355240  17.517   6.492   9.569
  239ETHO    O155241  17.372   6.498   9.414
  239ETHO    C155242  17.460   6.440   9.323
  239ETHO   H1155243  17.561   6.485   9.332
  239ETHO   H1355244  17.461   6.331   9.344
  239ETHO    C255245  17.409   6.468   9.180
  239ETHO   H2155246  17.365   6.570   9.187
  239ETHO   H2355247  17.501   6.473   9.119
  240ETHO    O155248  17.331   6.363   9.132
  240ETHO    C155249  17.290   6.386   9.005
  240ETHO   H1155250  17.383   6.389   8.943
  240ETHO   H1355251  17.223   6.475   8.996
  240ETHO    C255252  17.188   6.269   8.961
  240ETHO   H2155253  17.159   6.298   8.858
  240ETHO   H2355254  17.105   6.268   9.036
  241ETHO    O155255  17.255   6.144   8.945
  241ETHO    C155256  17.167   6.034   8.956
  241ETHO   H1155257  17.119   6.045   9.055
  241ETHO   H1355258  17.100   6.045   8.868
  241ETHO    C255259  17.245   5.902   8.957
  241ETHO   H2155260  17.173   5.821   8.931
  241ETHO   H2355261  17.290   5.890   9.058
  242ETHO    O155262  17.358   5.899   8.871
  242ETHO    C155263  17.320   5.870   8.733
  242ETHO   H1155264  17.274   5.965   8.696
  242ETHO   H1355265  17.239   5.795   8.722
  242ETHO    C255266  17.443   5.838   8.638
  242ETHO   H2155267  17.528   5.907   8.658
  242ETHO   H2355268  17.407   5.858   8.535
  243ETHO    O155269  17.481   5.705   8.655
  243ETHO    C155270  17.539   5.644   8.544
  243ETHO   H1155271  17.457   5.617   8.473
  243ETHO   H1355272  17.593   5.720   8.483
  243ETHO    C255273  17.635   5.527   8.582
  243ETHO   H2155274  17.680   5.545   8.682
  243ETHO   H2355275  17.717   5.525   8.507
  244ETHO    O155276  17.563   5.403   8.576
  244ETHO    C155277  17.626   5.290   8.640
  244ETHO   H1155278  17.563   5.205   8.608
  244ETHO   H1355279  17.635   5.313   8.749
  244ETHO    C255280  17.769   5.252   8.587
  244ETHO   H2155281  17.809   5.178   8.659
  244ETHO   H2355282  17.836   5.340   8.578
  245ETHO    O155283  17.764   5.184   8.456
  245ETHO    C155284  17.815   5.263   8.351
  245ETHO   H1155285  17.745   5.349   8.341
  245ETHO   H1355286  17.909   5.312   8.387
  245ETHO    C255287  17.835   5.188   8.226
  245ETHO   H2155288  17.858   5.263   8.147
  245ETHO   H2355289  17.740   5.134   8.207
  246ETHO    O155290  17.934   5.093   8.237
  246ETHO    C155291  17.978   5.049   8.103
  246ETHO   H1155292  18.020   5.135   8.045
  246ETHO   H1355293  17.886   5.014   8.051
  246ETHO    C255294  18.086   4.937   8.115
  246ETHO   H2155295  18.100   4.902   8.220
  246ETHO   H2355296  18.186   4.968   8.079
  247ETHO    O155297  18.057   4.814   8.054
  247ETHO    C155298  18.048   4.830   7.917
  247ETHO   H1155299  17.944   4.856   7.885
  247ETHO   H1355300  18.120   4.904   7.875
  247ETHO    C255301  18.071   4.695   7.851
  247ETHO   H2155302  18.008   4.623   7.907
  247ETHO   H2355303  18.032   4.710   7.748
  248ETHO    O155304  18.210   4.656   7.850
  248ETHO    C155305  18.256   4.677   7.715
  248ETHO   H1155306  18.211   4.603   7.645
  248ETHO   H1355307  18.231   4.778   7.676
  248ETHO    C255308  18.411   4.660   7.722
  248ETHO   H2155309  18.451   4.630   7.622
  248ETHO   H2355310  18.441   4.584   7.797
  249ETHO    O155311  18.470   4.780   7.765
  249ETHO    C155312  18.612   4.767   7.771
  249ETHO   H1155313  18.640   4.701   7.857
  249ETHO   H1355314  18.653   4.728   7.676
  249ETHO    C255315  18.696   4.895   7.799
  249ETHO   H2155316  18.800   4.872   7.828
  249ETHO   H2355317  18.654   4.952   7.885
  250ETHO    O155318  18.709   4.976   7.682
  250ETHO    C155319  18.591   5.048   7.661
  250ETHO   H1155320  18.529   4.965   7.622
  250ETHO   H1355321  18.534   5.075   7.752
  250ETHO    C255322  18.596   5.162   7.559
  250ETHO   H2155323  18.659   5.128   7.474
  250ETHO   H2355324  18.653   5.244   7.608
  251ETHO    O155325  18.464   5.200   7.514
  251ETHO    C155326  18.444   5.338   7.547
  251ETHO   H1155327  18.523   5.400   7.499
  251ETHO   H1355328  18.452   5.346   7.658
  251ETHO    C255329  18.297   5.367   7.506
  251ETHO   H2155330  18.226   5.298   7.557
  251ETHO   H2355331  18.292   5.364   7.395
  252ETHO    O155332  18.252   5.499   7.549
  252ETHO    C155333  18.150   5.554   7.472
  252ETHO   H1155334  18.178   5.548   7.365
  252ETHO   H1355335  18.061   5.489   7.484
  252ETHO    C255336  18.115   5.701   7.509
  252ETHO   H2155337  18.041   5.733   7.432
  252ETHO   H2355338  18.215   5.747   7.495
  253ETHO    O155339  18.055   5.728   7.635
  253ETHO    C155340  18.087   5.850   7.693
  253ETHO   H1155341  18.006   5.891   7.757
  253ETHO   H1355342  18.119   5.922   7.614
  253ETHO    C255343  18.205   5.816   7.789
  253ETHO   H2155344  18.239   5.910   7.835
  253ETHO   H2355345  18.279   5.764   7.724
  254ETHO    O155346  18.165   5.720   7.893
  254ETHO    C155347  18.283   5.672   7.958
  254ETHO   H1155348  18.333   5.604   7.886
  254ETHO   H1355349  18.348   5.761   7.975
  254ETHO    C255350  18.256   5.606   8.090
  254ETHO   H2155351  18.203   5.669   8.164
  254ETHO   H2355352  18.356   5.592   8.135
  255ETHO    O155353  18.182   5.480   8.076
  255ETHO    C155354  18.166   5.419   8.207
  255ETHO   H1155355  18.100   5.330   8.210
  255ETHO   H1355356  18.107   5.493   8.265
  255ETHO    C255357  18.297   5.387   8.285
  255ETHO   H2155358  18.377   5.383   8.209
  255ETHO   H2355359  18.287   5.294   8.344
  256ETHO    O155360  18.323   5.500   8.371
  256ETHO    C155361  18.458   5.500   8.413
  256ETHO   H1155362  18.501   5.402   8.381
  256ETHO   H1355363  18.513   5.585   8.367
  256ETHO    C255364  18.476   5.505   8.564
  256ETHO   H2155365  18.581   5.477   8.591
  256ETHO   H2355366  18.417   5.429   8.620
  257ETHO    O155367  18.449   5.641   8.604
  257ETHO    C155368  18.466   5.663   8.742
  257ETHO   H1155369  18.552   5.606   8.783
  257ETHO   H1355370  18.380   5.617   8.795
  257ETHO    C255371  18.479   5.812   8.785
  257ETHO   H2155372  18.564   5.858   8.730
  257ETHO   H2355373  18.508   5.809   8.892
  258ETHO    O155374  18.359   5.885   8.757
  258ETHO    C155375  18.366   6.018   8.824
  258ETHO   H1155376  18.360   6.000   8.934
  258ETHO   H1355377  18.460   6.071   8.796
  258ETHO    C255378  18.253   6.109   8.773
  258ETHO   H2155379  18.247   6.100   8.662
  258ETHO   H2355380  18.286   6.213   8.790
  259ETHO    O155381  18.133   6.076   8.835
  259ETHO    C155382  18.021   6.141   8.787
  259ETHO   H1155383  18.048   6.236   8.736
  259ETHO   H1355384  17.970   6.073   8.715
  259ETHO    C255385  17.916   6.186   8.893
  259ETHO   H2155386  17.903   6.102   8.965
  259ETHO   H2355387  17.819   6.197   8.839
  260ETHO    O155388  17.944   6.316   8.945
  260ETHO    C155389  17.839   6.349   9.038
  260ETHO   H1155390  17.746   6.351   8.977
  260ETHO   H1355391  17.833   6.268   9.114
  260ETHO    C255392  17.858   6.486   9.107
  260ETHO   H2155393  17.758   6.513   9.145
  260ETHO   H2355394  17.893   6.562   9.034
  261ETHO    O155395  17.961   6.490   9.216
  261ETHO    C155396  17.945   6.617   9.278
  261ETHO   H1155397  17.989   6.693   9.211
  261ETHO   H1355398  17.843   6.656   9.293
  261ETHO    C255399  18.038   6.613   9.398
  261ETHO   H2155400  18.040   6.707   9.458
  261ETHO   H2355401  18.143   6.587   9.375
  262ETHO    O155402  17.993   6.522   9.497
  262ETHO    C155403  18.005   6.559   9.629
  262ETHO   H1155404  18.108   6.598   9.644
  262ETHO   H1355405  17.987   6.470   9.693
  262ETHO    C255406  17.897   6.652   9.687
  262ETHO   H2155407  17.896   6.739   9.618
  262ETHO   H2355408  17.931   6.687   9.787
  263ETHO    O155409  17.756   6.607   9.690
  263ETHO    C155410  17.675   6.698   9.760
  263ETHO   H1155411  17.714   6.731   9.859
  263ETHO   H1355412  17.587   6.630   9.765
  263ETHO    C255413  17.650   6.824   9.668
  263ETHO   H2155414  17.551   6.859   9.705
  263ETHO   H2355415  17.638   6.785   9.565
  264ETHO    O155416  17.746   6.926   9.694
  264ETHO    C155417  17.716   7.038   9.615
  264ETHO   H1155418  17.730   7.125   9.683
  264ETHO   H1355419  17.609   7.046   9.584
  264ETHO    C255420  17.820   7.049   9.509
  264ETHO   H2155421  17.922   7.028   9.547
  264ETHO   H2355422  17.810   7.152   9.470
  265ETHO    O155423  17.800   6.961   9.402
  265ETHO    C155424  17.707   7.006   9.305
  265ETHO   H1155425  17.613   7.031   9.359
  265ETHO   H1355426  17.741   7.096   9.250
  265ETHO    C255427  17.673   6.898   9.204
  265ETHO   H2155428  17.764   6.839   9.180
  265ETHO   H2355429  17.622   6.928   9.110
  265ETHO    OZ55430  17.602   6.796   9.270
  265ETHO   HZ155431  17.666   6.734   9.308
    1ETHO    O155432  12.738   9.461  16.603
    1ETHO   HO155433  12.741   9.369  16.577
    1ETHO    C155434  12.604   9.497  16.568
    1ETHO   H1155435  12.537   9.413  16.598
    1ETHO   H1355436  12.599   9.504  16.457
    1ETHO    C255437  12.550   9.624  16.637
    1ETHO   H2155438  12.460   9.658  16.581
    1ETHO   H2355439  12.635   9.696  16.637
    2ETHO    O155440  12.517   9.597  16.769
    2ETHO    C155441  12.469   9.712  16.845
    2ETHO   H1155442  12.548   9.789  16.856
    2ETHO   H1355443  12.387   9.760  16.787
    2ETHO    C255444  12.433   9.662  16.984
    2ETHO   H2155445  12.523   9.629  17.040
    2ETHO   H2355446  12.358   9.582  16.967
    3ETHO    O155447  12.348   9.757  17.059
    3ETHO    C155448  12.405   9.883  17.108
    3ETHO   H1155449  12.470   9.933  17.031
    3ETHO   H1355450  12.476   9.851  17.187
    3ETHO    C255451  12.299   9.994  17.157
    3ETHO   H2155452  12.354  10.059  17.229
    3ETHO   H2355453  12.218   9.941  17.212
    4ETHO    O155454  12.241  10.070  17.052
    4ETHO    C155455  12.133  10.148  17.110
    4ETHO   H1155456  12.063  10.081  17.165
    4ETHO   H1355457  12.185  10.218  17.178
    4ETHO    C255458  12.046  10.230  17.015
    4ETHO   H2155459  12.102  10.302  16.951
    4ETHO   H2355460  11.984  10.289  17.086
    5ETHO    O155461  11.965  10.145  16.932
    5ETHO    C155462  11.977  10.167  16.793
    5ETHO   H1155463  11.946  10.266  16.754
    5ETHO   H1355464  12.084  10.149  16.767
    5ETHO    C255465  11.886  10.077  16.710
    5ETHO   H2155466  11.914   9.971  16.728
    5ETHO   H2355467  11.904  10.097  16.602
    6ETHO    O155468  11.746  10.096  16.737
    6ETHO    C155469  11.680  10.169  16.635
    6ETHO   H1155470  11.732  10.267  16.643
    6ETHO   H1355471  11.705  10.119  16.539
    6ETHO    C255472  11.533  10.165  16.648
    6ETHO   H2155473  11.497  10.070  16.691
    6ETHO   H2355474  11.484  10.167  16.548
    7ETHO    O155475  11.481  10.269  16.735
    7ETHO    C155476  11.338  10.286  16.713
    7ETHO   H1155477  11.313  10.292  16.605
    7ETHO   H1355478  11.290  10.198  16.762
    7ETHO    C255479  11.296  10.416  16.790
    7ETHO   H2155480  11.360  10.504  16.767
    7ETHO   H2355481  11.313  10.395  16.898
    8ETHO    O155482  11.154  10.444  16.772
    8ETHO    C155483  11.136  10.578  16.772
    8ETHO   H1155484  11.188  10.620  16.684
    8ETHO   H1355485  11.167  10.625  16.868
    8ETHO    C255486  10.989  10.618  16.743
    8ETHO   H2155487  10.955  10.551  16.661
    8ETHO   H2355488  10.976  10.721  16.704
    9ETHO    O155489  10.915  10.599  16.865
    9ETHO    C155490  10.878  10.723  16.923
    9ETHO   H1155491  10.952  10.804  16.939
    9ETHO   H1355492  10.807  10.783  16.862
    9ETHO    C255493  10.814  10.693  17.058
    9ETHO   H2155494  10.755  10.599  17.053
    9ETHO   H2355495  10.742  10.776  17.075
   10ETHO    O155496  10.906  10.701  17.165
   10ETHO    C155497  11.012  10.605  17.161
   10ETHO   H1155498  11.083  10.630  17.080
   10ETHO   H1355499  10.984  10.503  17.125
   10ETHO    C255500  11.102  10.603  17.283
   10ETHO   H2155501  11.166  10.693  17.275
   10ETHO   H2355502  11.181  10.525  17.290
   11ETHO    O155503  11.016  10.595  17.401
   11ETHO    C155504  11.104  10.584  17.515
   11ETHO   H1155505  11.186  10.513  17.494
   11ETHO   H1355506  11.144  10.683  17.544
   11ETHO    C255507  11.012  10.537  17.632
   11ETHO   H2155508  11.068  10.563  17.725
   11ETHO   H2355509  10.920  10.599  17.624
   12ETHO    O155510  10.999  10.394  17.634
   12ETHO    C155511  10.911  10.351  17.737
   12ETHO   H1155512  10.806  10.381  17.714
   12ETHO   H1355513  10.933  10.403  17.832
   12ETHO    C255514  10.910  10.204  17.766
   12ETHO   H2155515  10.928  10.153  17.669
   12ETHO   H2355516  10.812  10.177  17.811
   13ETHO    O155517  11.017  10.170  17.851
   13ETHO    C155518  11.001  10.045  17.914
   13ETHO   H1155519  10.895  10.024  17.942
   13ETHO   H1355520  11.052   9.968  17.852
   13ETHO    C255521  11.070  10.038  18.056
   13ETHO   H2155522  11.180  10.030  18.040
   13ETHO   H2355523  11.050   9.943  18.109
   14ETHO    O155524  11.031  10.144  18.140
   14ETHO    C155525  11.121  10.171  18.249
   14ETHO   H1155526  11.098  10.272  18.289
   14ETHO   H1355527  11.229  10.172  18.224
   14ETHO    C255528  11.079  10.090  18.373
   14ETHO   H2155529  10.971  10.101  18.398
   14ETHO   H2355530  11.145  10.118  18.458
   15ETHO    O155531  11.121   9.953  18.358
   15ETHO    C155532  11.159   9.893  18.480
   15ETHO   H1155533  11.245   9.948  18.523
   15ETHO   H1355534  11.069   9.903  18.544
   15ETHO    C255535  11.196   9.747  18.462
   15ETHO   H2155536  11.239   9.731  18.361
   15ETHO   H2355537  11.277   9.738  18.536
   16ETHO    O155538  11.093   9.651  18.481
   16ETHO    C155539  11.141   9.526  18.437
   16ETHO   H1155540  11.162   9.532  18.328
   16ETHO   H1355541  11.234   9.498  18.490
   16ETHO    C255542  11.029   9.419  18.474
   16ETHO   H2155543  11.065   9.326  18.425
   16ETHO   H2355544  10.936   9.457  18.427
   17ETHO    O155545  10.988   9.399  18.609
   17ETHO    C155546  10.908   9.286  18.621
   17ETHO   H1155547  10.839   9.275  18.535
   17ETHO   H1355548  10.983   9.203  18.621
   17ETHO    C255549  10.836   9.273  18.756
   17ETHO   H2155550  10.917   9.260  18.831
   17ETHO   H2355551  10.774   9.181  18.749
   18ETHO    O155552  10.747   9.368  18.788
   18ETHO    C155553  10.694   9.355  18.921
   18ETHO   H1155554  10.630   9.266  18.936
   18ETHO   H1355555  10.769   9.351  19.003
   18ETHO    C255556  10.597   9.471  18.955
   18ETHO   H2155557  10.533   9.453  19.044
   18ETHO   H2355558  10.527   9.477  18.870
   19ETHO    O155559  10.667   9.591  18.977
   19ETHO    C155560  10.579   9.703  18.988
   19ETHO   H1155561  10.500   9.685  19.063
   19ETHO   H1355562  10.541   9.720  18.885
   19ETHO    C255563  10.644   9.826  19.042
   19ETHO   H2155564  10.572   9.904  19.076
   19ETHO   H2355565  10.694   9.883  18.961
   20ETHO    O155566  10.724   9.798  19.156
   20ETHO    C155567  10.812   9.911  19.185
   20ETHO   H1155568  10.912   9.872  19.218
   20ETHO   H1355569  10.846   9.971  19.098
   20ETHO    C255570  10.747  10.009  19.280
   20ETHO   H2155571  10.657  10.060  19.238
   20ETHO   H2355572  10.812  10.087  19.324
   21ETHO    O155573  10.723   9.927  19.389
   21ETHO    C155574  10.624   9.987  19.472
   21ETHO   H1155575  10.530  10.004  19.415
   21ETHO   H1355576  10.659  10.088  19.500
   21ETHO    C255577  10.594   9.919  19.604
   21ETHO   H2155578  10.521   9.971  19.670
   21ETHO   H2355579  10.690   9.914  19.659
   22ETHO    O155580  10.566   9.779  19.566
   22ETHO    C155581  10.560   9.685  19.676
   22ETHO   H1155582  10.660   9.680  19.725
   22ETHO   H1355583  10.487   9.727  19.749
   22ETHO    C255584  10.531   9.536  19.633
   22ETHO   H2155585  10.591   9.501  19.546
   22ETHO   H2355586  10.557   9.473  19.721
   23ETHO    O155587  10.391   9.527  19.615
   23ETHO    C155588  10.350   9.393  19.627
   23ETHO   H1155589  10.407   9.329  19.699
   23ETHO   H1355590  10.363   9.347  19.527
   23ETHO    C255591  10.197   9.395  19.668
   23ETHO   H2155592  10.148   9.459  19.592
   23ETHO   H2355593  10.194   9.444  19.768
   24ETHO    O155594  10.123   9.276  19.655
   24ETHO    C155595  10.169   9.183  19.757
   24ETHO   H1155596  10.271   9.143  19.735
   24ETHO   H1355597  10.176   9.239  19.852
   24ETHO    C255598  10.071   9.056  19.780
   24ETHO   H2155599   9.964   9.086  19.788
   24ETHO   H2355600  10.103   9.018  19.879
   25ETHO    O155601  10.089   8.965  19.671
   25ETHO    C155602  10.000   8.860  19.688
   25ETHO   H1155603   9.899   8.900  19.712
   25ETHO   H1355604  10.035   8.806  19.778
   25ETHO    C255605   9.993   8.764  19.573
   25ETHO   H2155606   9.946   8.670  19.611
   25ETHO   H2355607  10.099   8.753  19.544
   26ETHO    O155608   9.921   8.812  19.460
   26ETHO    C155609   9.893   8.715  19.362
   26ETHO   H1155610   9.856   8.626  19.417
   26ETHO   H1355611   9.804   8.744  19.302
   26ETHO    C255612  10.011   8.696  19.268
   26ETHO   H2155613  10.100   8.657  19.322
   26ETHO   H2355614  10.043   8.798  19.240
   27ETHO    O155615   9.974   8.602  19.168
   27ETHO    C155616  10.088   8.545  19.111
   27ETHO   H1155617  10.144   8.473  19.175
   27ETHO   H1355618  10.152   8.622  19.063
   27ETHO    C255619  10.036   8.456  18.993
   27ETHO   H2155620   9.979   8.367  19.026
   27ETHO   H2355621  10.125   8.413  18.943
   28ETHO    O155622   9.951   8.526  18.904
   28ETHO    C155623   9.914   8.451  18.786
   28ETHO   H1155624  10.006   8.424  18.729
   28ETHO   H1355625   9.864   8.361  18.826
   28ETHO    C255626   9.819   8.527  18.696
   28ETHO   H2155627   9.771   8.468  18.615
   28ETHO   H2355628   9.872   8.612  18.649
   29ETHO    O155629   9.720   8.587  18.780
   29ETHO    C155630   9.606   8.623  18.709
   29ETHO   H1155631   9.545   8.536  18.677
   29ETHO   H1355632   9.634   8.685  18.621
   29ETHO    C255633   9.522   8.714  18.795
   29ETHO   H2155634   9.463   8.769  18.719
   29ETHO   H2355635   9.578   8.785  18.860
   30ETHO    O155636   9.429   8.636  18.869
   30ETHO    C155637   9.377   8.701  18.984
   30ETHO   H1155638   9.460   8.714  19.057
   30ETHO   H1355639   9.331   8.798  18.956
   30ETHO    C255640   9.264   8.630  19.057
   30ETHO   H2155641   9.185   8.607  18.981
   30ETHO   H2355642   9.218   8.712  19.116
   31ETHO    O155643   9.286   8.523  19.148
   31ETHO    C155644   9.347   8.412  19.080
   31ETHO   H1155645   9.277   8.387  18.998
   31ETHO   H1355646   9.444   8.456  19.046
   31ETHO    C255647   9.367   8.284  19.167
   31ETHO   H2155648   9.369   8.199  19.095
   31ETHO   H2355649   9.277   8.274  19.230
   32ETHO    O155650   9.471   8.279  19.260
   32ETHO    C155651   9.458   8.166  19.343
   32ETHO   H1155652   9.357   8.167  19.389
   32ETHO   H1355653   9.466   8.076  19.278
   32ETHO    C255654   9.556   8.181  19.459
   32ETHO   H2155655   9.641   8.243  19.423
   32ETHO   H2355656   9.599   8.082  19.487
   33ETHO    O155657   9.493   8.243  19.573
   33ETHO    C155658   9.526   8.380  19.569
   33ETHO   H1155659   9.632   8.399  19.595
   33ETHO   H1355660   9.500   8.419  19.468
   33ETHO    C255661   9.445   8.464  19.668
   33ETHO   H2155662   9.482   8.452  19.773
   33ETHO   H2355663   9.344   8.417  19.670
   34ETHO    O155664   9.424   8.600  19.633
   34ETHO    C155665   9.546   8.660  19.592
   34ETHO   H1155666   9.585   8.619  19.497
   34ETHO   H1355667   9.624   8.634  19.666
   34ETHO    C255668   9.522   8.813  19.592
   34ETHO   H2155669   9.429   8.833  19.535
   34ETHO   H2355670   9.615   8.846  19.541
   35ETHO    O155671   9.503   8.864  19.724
   35ETHO    C155672   9.494   9.009  19.724
   35ETHO   H1155673   9.584   9.055  19.679
   35ETHO   H1355674   9.404   9.050  19.674
   35ETHO    C255675   9.487   9.059  19.867
   35ETHO   H2155676   9.490   9.169  19.881
   35ETHO   H2355677   9.574   9.043  19.935
   36ETHO    O155678   9.368   9.012  19.936
   36ETHO    C155679   9.269   9.109  19.941
   36ETHO   H1155680   9.249   9.151  19.840
   36ETHO   H1355681   9.281   9.198  20.006
   36ETHO    C255682   9.133   9.054  19.981
   36ETHO   H2155683   9.115   8.957  19.930
   36ETHO   H2355684   9.060   9.132  19.950
   37ETHO    O155685   9.128   9.043  20.122
   37ETHO    C155686   9.178   8.916  20.168
   37ETHO   H1155687   9.119   8.835  20.121
   37ETHO   H1355688   9.283   8.900  20.133
   37ETHO    C255689   9.168   8.889  20.315
   37ETHO   H2155690   9.198   8.784  20.335
   37ETHO   H2355691   9.069   8.913  20.359
   38ETHO    O155692   9.252   8.982  20.382
   38ETHO    C155693   9.269   8.956  20.517
   38ETHO   H1155694   9.315   8.858  20.541
   38ETHO   H1355695   9.175   8.965  20.576
   38ETHO    C255696   9.365   9.065  20.578
   38ETHO   H2155697   9.347   9.063  20.687
   38ETHO   H2355698   9.350   9.162  20.527
   39ETHO    O155699   9.497   9.014  20.552
   39ETHO    C155700   9.596   9.105  20.590
   39ETHO   H1155701   9.585   9.210  20.555
   39ETHO   H1355702   9.601   9.121  20.700
   39ETHO    C255703   9.742   9.057  20.546
   39ETHO   H2155704   9.751   8.948  20.565
   39ETHO   H2355705   9.815   9.113  20.609
   40ETHO    O155706   9.762   9.093  20.409
   40ETHO    C155707   9.884   9.056  20.365
   40ETHO   H1155708   9.927   8.964  20.410
   40ETHO   H1355709   9.950   9.140  20.395
   40ETHO    C255710   9.890   9.051  20.213
   40ETHO   H2155711   9.991   9.038  20.170
   40ETHO   H2355712   9.841   9.146  20.181
   41ETHO    O155713   9.814   8.943  20.164
   41ETHO    C155714   9.828   8.930  20.021
   41ETHO   H1155715   9.811   9.027  19.969
   41ETHO   H1355716   9.937   8.911  20.004
   41ETHO    C255717   9.739   8.823  19.957
   41ETHO   H2155718   9.730   8.831  19.847
   41ETHO   H2355719   9.632   8.822  19.986
   42ETHO    O155720   9.790   8.690  19.980
   42ETHO    C155721   9.695   8.583  19.947
   42ETHO   H1155722   9.632   8.564  20.036
   42ETHO   H1355723   9.619   8.606  19.869
   42ETHO    C255724   9.753   8.446  19.917
   42ETHO   H2155725   9.682   8.361  19.914
   42ETHO   H2355726   9.833   8.422  19.991
   43ETHO    O155727   9.821   8.430  19.795
   43ETHO    C155728   9.871   8.293  19.773
   43ETHO   H1155729   9.953   8.273  19.845
   43ETHO   H1355730   9.802   8.210  19.801
   43ETHO    C255731   9.937   8.276  19.635
   43ETHO   H2155732   9.871   8.308  19.551
   43ETHO   H2355733   9.960   8.169  19.616
   44ETHO    O155734  10.059   8.347  19.627
   44ETHO    C155735  10.115   8.340  19.499
   44ETHO   H1155736  10.110   8.244  19.442
   44ETHO   H1355737  10.058   8.405  19.430
   44ETHO    C255738  10.264   8.389  19.513
   44ETHO   H2155739  10.315   8.321  19.585
   44ETHO   H2355740  10.261   8.491  19.556
   45ETHO    O155741  10.348   8.386  19.396
   45ETHO    C155742  10.400   8.512  19.359
   45ETHO   H1155743  10.449   8.551  19.450
   45ETHO   H1355744  10.314   8.582  19.349
   45ETHO    C255745  10.495   8.504  19.238
   45ETHO   H2155746  10.541   8.403  19.240
   45ETHO   H2355747  10.566   8.589  19.236
   46ETHO    O155748  10.406   8.514  19.127
   46ETHO    C155749  10.468   8.533  19.004
   46ETHO   H1155750  10.415   8.599  18.932
   46ETHO   H1355751  10.556   8.600  19.015
   46ETHO    C255752  10.527   8.404  18.938
   46ETHO   H2155753  10.571   8.337  19.015
   46ETHO   H2355754  10.605   8.424  18.860
   47ETHO    O155755  10.424   8.332  18.883
   47ETHO    C155756  10.469   8.224  18.801
   47ETHO   H1155757  10.465   8.124  18.848
   47ETHO   H1355758  10.571   8.242  18.760
   47ETHO    C255759  10.386   8.226  18.669
   47ETHO   H2155760  10.450   8.176  18.593
   47ETHO   H2355761  10.374   8.334  18.646
   48ETHO    O155762  10.254   8.172  18.665
   48ETHO    C155763  10.206   8.156  18.528
   48ETHO   H1155764  10.174   8.250  18.477
   48ETHO   H1355765  10.276   8.090  18.473
   48ETHO    C255766  10.074   8.072  18.534
   48ETHO   H2155767  10.005   8.103  18.615
   48ETHO   H2355768  10.012   8.075  18.442
   49ETHO    O155769  10.114   7.938  18.546
   49ETHO    C155770   9.999   7.858  18.545
   49ETHO   H1155771   9.950   7.868  18.446
   49ETHO   H1355772   9.943   7.884  18.638
   49ETHO    C255773  10.030   7.713  18.574
   49ETHO   H2155774  10.093   7.674  18.492
   49ETHO   H2355775   9.932   7.660  18.566
   50ETHO    O155776  10.079   7.685  18.700
   50ETHO    C155777   9.991   7.594  18.768
   50ETHO   H1155778   9.908   7.658  18.804
   50ETHO   H1355779   9.963   7.509  18.702
   50ETHO    C255780  10.047   7.540  18.898
   50ETHO   H2155781   9.956   7.514  18.957
   50ETHO   H2355782  10.104   7.614  18.958
   51ETHO    O155783  10.130   7.428  18.888
   51ETHO    C155784  10.054   7.300  18.883
   51ETHO   H1155785   9.967   7.306  18.815
   51ETHO   H1355786  10.003   7.278  18.980
   51ETHO    C255787  10.142   7.178  18.854
   51ETHO   H2155788  10.101   7.078  18.879
   51ETHO   H2355789  10.238   7.179  18.911
   52ETHO    O155790  10.161   7.185  18.709
   52ETHO    C155791  10.208   7.065  18.660
   52ETHO   H1155792  10.140   6.984  18.694
   52ETHO   H1355793  10.205   7.064  18.548
   52ETHO    C255794  10.349   7.031  18.711
   52ETHO   H2155795  10.401   7.129  18.717
   52ETHO   H2355796  10.396   6.964  18.636
   53ETHO    O155797  10.353   6.957  18.837
   53ETHO    C155798  10.493   6.936  18.872
   53ETHO   H1155799  10.561   7.008  18.822
   53ETHO   H1355800  10.516   6.956  18.979
   53ETHO    C255801  10.548   6.799  18.838
   53ETHO   H2155802  10.658   6.801  18.854
   53ETHO   H2355803  10.529   6.771  18.732
   54ETHO    O155804  10.481   6.703  18.927
   54ETHO    C155805  10.551   6.575  18.931
   54ETHO   H1155806  10.661   6.586  18.943
   54ETHO   H1355807  10.526   6.534  19.032
   54ETHO    C255808  10.507   6.472  18.820
   54ETHO   H2155809  10.400   6.445  18.832
   54ETHO   H2355810  10.560   6.377  18.844
   55ETHO    O155811  10.545   6.513  18.685
   55ETHO    C155812  10.543   6.416  18.590
   55ETHO   H1155813  10.576   6.473  18.501
   55ETHO   H1355814  10.626   6.342  18.597
   55ETHO    C255815  10.406   6.368  18.542
   55ETHO   H2155816  10.343   6.459  18.544
   55ETHO   H2355817  10.427   6.339  18.437
   56ETHO    O155818  10.346   6.266  18.618
   56ETHO    C155819  10.201   6.280  18.608
   56ETHO   H1155820  10.162   6.279  18.504
   56ETHO   H1355821  10.165   6.373  18.658
   56ETHO    C255822  10.139   6.171  18.692
   56ETHO   H2155823  10.168   6.067  18.665
   56ETHO   H2355824  10.030   6.175  18.671
   57ETHO    O155825  10.142   6.191  18.834
   57ETHO    C155826  10.270   6.154  18.887
   57ETHO   H1155827  10.293   6.047  18.870
   57ETHO   H1355828  10.344   6.210  18.826
   57ETHO    C255829  10.283   6.196  19.041
   57ETHO   H2155830  10.387   6.181  19.076
   57ETHO   H2355831  10.217   6.131  19.102
   58ETHO    O155832  10.248   6.330  19.067
   58ETHO    C155833  10.248   6.348  19.211
   58ETHO   H1155834  10.349   6.329  19.251
   58ETHO   H1355835  10.173   6.278  19.252
   58ETHO    C255836  10.207   6.486  19.258
   58ETHO   H2155837  10.187   6.459  19.364
   58ETHO   H2355838  10.100   6.490  19.225
   59ETHO    O155839  10.294   6.593  19.232
   59ETHO    C155840  10.329   6.667  19.346
   59ETHO   H1155841  10.239   6.674  19.411
   59ETHO   H1355842  10.412   6.618  19.400
   59ETHO    C255843  10.385   6.808  19.303
   59ETHO   H2155844  10.450   6.799  19.213
   59ETHO   H2355845  10.451   6.843  19.386
   60ETHO    O155846  10.284   6.896  19.274
   60ETHO    C155847  10.342   7.027  19.256
   60ETHO   H1155848  10.417   7.026  19.174
   60ETHO   H1355849  10.396   7.058  19.348
   60ETHO    C255850  10.222   7.124  19.225
   60ETHO   H2155851  10.167   7.087  19.136
   60ETHO   H2355852  10.257   7.227  19.203
   61ETHO    O155853  10.135   7.144  19.334
   61ETHO    C155854  10.018   7.212  19.289
   61ETHO   H1155855  10.042   7.319  19.275
   61ETHO   H1355856   9.983   7.163  19.195
   61ETHO    C255857   9.906   7.194  19.396
   61ETHO   H2155858   9.880   7.090  19.423
   61ETHO   H2355859   9.811   7.227  19.351
   62ETHO    O155860   9.931   7.267  19.516
   62ETHO    C155861   9.833   7.247  19.618
   62ETHO   H1155862   9.736   7.201  19.587
   62ETHO   H1355863   9.800   7.346  19.655
   62ETHO    C255864   9.896   7.162  19.738
   62ETHO   H2155865   9.935   7.064  19.702
   62ETHO   H2355866   9.812   7.142  19.807
   63ETHO    O155867   9.992   7.224  19.825
   63ETHO    C155868  10.120   7.236  19.766
   63ETHO   H1155869  10.180   7.146  19.789
   63ETHO   H1355870  10.106   7.245  19.656
   63ETHO    C255871  10.210   7.357  19.809
   63ETHO   H2155872  10.316   7.338  19.782
   63ETHO   H2355873  10.205   7.369  19.919
   64ETHO    O155874  10.154   7.475  19.756
   64ETHO    C155875  10.237   7.585  19.788
   64ETHO   H1155876  10.342   7.560  19.764
   64ETHO   H1355877  10.228   7.610  19.896
   64ETHO    C255878  10.180   7.708  19.721
   64ETHO   H2155879  10.184   7.703  19.610
   64ETHO   H2355880  10.232   7.799  19.758
   65ETHO    O155881  10.051   7.729  19.764
   65ETHO    C155882   9.982   7.832  19.688
   65ETHO   H1155883  10.038   7.927  19.704
   65ETHO   H1355884   9.982   7.796  19.583
   65ETHO    C255885   9.838   7.856  19.729
   65ETHO   H2155886   9.784   7.764  19.700
   65ETHO   H2355887   9.788   7.933  19.667
   66ETHO    O155888   9.822   7.896  19.862
   66ETHO    C155889   9.694   7.952  19.897
   66ETHO   H1155890   9.618   7.871  19.898
   66ETHO   H1355891   9.658   8.033  19.830
   66ETHO    C255892   9.682   8.004  20.043
   66ETHO   H2155893   9.707   7.922  20.115
   66ETHO   H2355894   9.572   8.013  20.061
   67ETHO    O155895   9.754   8.125  20.067
   67ETHO    C155896   9.706   8.203  20.171
   67ETHO   H1155897   9.782   8.280  20.199
   67ETHO   H1355898   9.612   8.258  20.148
   67ETHO    C255899   9.679   8.133  20.305
   67ETHO   H2155900   9.617   8.042  20.285
   67ETHO   H2355901   9.636   8.202  20.381
   68ETHO    O155902   9.795   8.086  20.366
   68ETHO    C155903   9.776   7.959  20.425
   68ETHO   H1155904   9.683   7.960  20.486
   68ETHO   H1355905   9.755   7.887  20.343
   68ETHO    C255906   9.899   7.926  20.513
   68ETHO   H2155907   9.987   7.970  20.462
   68ETHO   H2355908   9.910   7.815  20.512
   69ETHO    O155909   9.893   7.979  20.646
   69ETHO    C155910  10.012   7.963  20.719
   69ETHO   H1155911  10.047   7.858  20.707
   69ETHO   H1355912  10.082   8.036  20.674
   69ETHO    C255913   9.991   7.992  20.868
   69ETHO   H2155914   9.952   8.093  20.894
   69ETHO   H2355915  10.093   7.998  20.911
   70ETHO    O155916   9.939   7.885  20.942
   70ETHO    C155917   9.795   7.906  20.959
   70ETHO   H1155918   9.764   7.997  21.015
   70ETHO   H1355919   9.750   7.928  20.860
   70ETHO    C255920   9.734   7.779  21.019
   70ETHO   H2155921   9.632   7.788  21.062
   70ETHO   H2355922   9.798   7.755  21.107
   71ETHO    O155923   9.743   7.669  20.930
   71ETHO    C155924   9.637   7.658  20.835
   71ETHO   H1155925   9.650   7.733  20.753
   71ETHO   H1355926   9.544   7.686  20.889
   71ETHO    C255927   9.631   7.513  20.784
   71ETHO   H2155928   9.529   7.486  20.752
   71ETHO   H2355929   9.656   7.453  20.875
   72ETHO    O155930   9.735   7.478  20.691
   72ETHO    C155931   9.697   7.526  20.562
   72ETHO   H1155932   9.587   7.518  20.548
   72ETHO   H1355933   9.724   7.633  20.546
   72ETHO    C255934   9.752   7.439  20.447
   72ETHO   H2155935   9.863   7.443  20.454
   72ETHO   H2355936   9.711   7.478  20.351
   73ETHO    O155937   9.710   7.306  20.470
   73ETHO    C155938   9.739   7.227  20.358
   73ETHO   H1155939   9.848   7.232  20.335
   73ETHO   H1355940   9.679   7.269  20.275
   73ETHO    C255941   9.688   7.082  20.361
   73ETHO   H2155942   9.743   7.014  20.429
   73ETHO   H2355943   9.697   7.038  20.259
   74ETHO    O155944   9.549   7.078  20.385
   74ETHO    C155945   9.516   7.035  20.515
   74ETHO   H1155946   9.596   7.054  20.590
   74ETHO   H1355947   9.427   7.091  20.551
   74ETHO    C255948   9.471   6.887  20.517
   74ETHO   H2155949   9.374   6.855  20.474
   74ETHO   H2355950   9.461   6.867  20.626
   75ETHO    O155951   9.583   6.798  20.484
   75ETHO    C155952   9.545   6.660  20.480
   75ETHO   H1155953   9.453   6.654  20.418
   75ETHO   H1355954   9.531   6.621  20.583
   75ETHO    C255955   9.656   6.569  20.424
   75ETHO   H2155956   9.680   6.596  20.318
   75ETHO   H2355957   9.626   6.463  20.430
   76ETHO    O155958   9.771   6.577  20.501
   76ETHO    C155959   9.879   6.510  20.434
   76ETHO   H1155960   9.874   6.402  20.462
   76ETHO   H1355961   9.883   6.520  20.324
   76ETHO    C255962  10.011   6.563  20.493
   76ETHO   H2155963  10.101   6.504  20.468
   76ETHO   H2355964   9.992   6.547  20.601
   77ETHO    O155965  10.043   6.704  20.458
   77ETHO    C155966  10.119   6.763  20.564
   77ETHO   H1155967  10.217   6.713  20.553
   77ETHO   H1355968  10.068   6.737  20.660
   77ETHO    C255969  10.136   6.916  20.564
   77ETHO   H2155970  10.178   6.942  20.663
   77ETHO   H2355971  10.043   6.975  20.551
   78ETHO    O155972  10.238   6.957  20.466
   78ETHO    C155973  10.225   7.091  20.435
   78ETHO   H1155974  10.128   7.112  20.384
   78ETHO   H1355975  10.232   7.150  20.529
   78ETHO    C255976  10.346   7.129  20.345
   78ETHO   H2155977  10.444   7.093  20.381
   78ETHO   H2355978  10.356   7.240  20.344
   79ETHO    O155979  10.311   7.068  20.219
   79ETHO    C155980  10.393   7.109  20.117
   79ETHO   H1155981  10.365   7.215  20.100
   79ETHO   H1355982  10.502   7.116  20.139
   79ETHO    C255983  10.387   7.037  19.979
   79ETHO   H2155984  10.395   7.114  19.899
   79ETHO   H2355985  10.286   6.992  19.984
   80ETHO    O155986  10.487   6.936  19.958
   80ETHO    C155987  10.454   6.833  19.871
   80ETHO   H1155988  10.544   6.770  19.853
   80ETHO   H1355989  10.372   6.771  19.914
   80ETHO    C255990  10.408   6.866  19.731
   80ETHO   H2155991  10.325   6.940  19.733
   80ETHO   H2355992  10.355   6.776  19.694
   81ETHO    O155993  10.501   6.903  19.630
   81ETHO    C155994  10.553   7.038  19.653
   81ETHO   H1155995  10.466   7.108  19.645
   81ETHO   H1355996  10.592   7.047  19.757
   81ETHO    C255997  10.664   7.080  19.558
   81ETHO   H2155998  10.705   7.176  19.596
   81ETHO   H2355999  10.741   7.001  19.559
   82ETHO    O156000  10.617   7.094  19.419
   82ETHO    C156001  10.730   7.138  19.335
   82ETHO   H1156002  10.808   7.060  19.344
   82ETHO   H1356003  10.773   7.231  19.378
   82ETHO    C256004  10.697   7.146  19.187
   82ETHO   H2156005  10.655   7.058  19.136
   82ETHO   H2356006  10.796   7.169  19.142
   83ETHO    O156007  10.612   7.258  19.170
   83ETHO    C156008  10.582   7.265  19.031
   83ETHO   H1156009  10.663   7.241  18.959
   83ETHO   H1356010  10.501   7.191  19.014
   83ETHO    C256011  10.514   7.399  18.989
   83ETHO   H2156012  10.449   7.433  19.072
   83ETHO   H2356013  10.457   7.390  18.894
   84ETHO    O156014  10.622   7.483  18.956
   84ETHO    C156015  10.573   7.609  18.906
   84ETHO   H1156016  10.499   7.653  18.976
   84ETHO   H1356017  10.515   7.587  18.814
   84ETHO    C256018  10.681   7.711  18.871
   84ETHO   H2156019  10.729   7.733  18.968
   84ETHO   H2356020  10.650   7.815  18.847
   85ETHO    O156021  10.779   7.650  18.782
   85ETHO    C156022  10.907   7.618  18.833
   85ETHO   H1156023  10.940   7.697  18.903
   85ETHO   H1356024  10.908   7.518  18.883
   85ETHO    C256025  11.015   7.621  18.731
   85ETHO   H2156026  10.984   7.568  18.638
   85ETHO   H2356027  11.104   7.575  18.779
   86ETHO    O156028  11.050   7.757  18.701
   86ETHO    C156029  11.152   7.762  18.606
   86ETHO   H1156030  11.119   7.747  18.501
   86ETHO   H1356031  11.234   7.690  18.627
   86ETHO    C256032  11.216   7.903  18.626
   86ETHO   H2156033  11.307   7.921  18.565
   86ETHO   H2356034  11.254   7.901  18.731
   87ETHO    O156035  11.133   8.012  18.595
   87ETHO    C156036  11.200   8.131  18.565
   87ETHO   H1156037  11.252   8.177  18.652
   87ETHO   H1356038  11.284   8.115  18.494
   87ETHO    C256039  11.105   8.244  18.523
   87ETHO   H2156040  11.158   8.339  18.504
   87ETHO   H2356041  11.038   8.274  18.607
   88ETHO    O156042  11.026   8.212  18.413
   88ETHO    C156043  11.006   8.322  18.330
   88ETHO   H1156044  11.099   8.377  18.304
   88ETHO   H1356045  10.924   8.389  18.363
   88ETHO    C256046  10.953   8.270  18.197
   88ETHO   H2156047  10.864   8.327  18.163
   88ETHO   H2356048  10.915   8.167  18.216
   89ETHO    O156049  11.049   8.276  18.093
   89ETHO    C156050  11.002   8.239  17.963
   89ETHO   H1156051  10.961   8.136  17.962
   89ETHO   H1356052  10.933   8.310  17.912
   89ETHO    C256053  11.119   8.233  17.861
   89ETHO   H2156054  11.109   8.146  17.792
   89ETHO   H2356055  11.210   8.192  17.910
   90ETHO    O156056  11.147   8.346  17.780
   90ETHO    C156057  11.224   8.440  17.850
   90ETHO   H1156058  11.161   8.530  17.864
   90ETHO   H1356059  11.256   8.410  17.953
   90ETHO    C256060  11.345   8.474  17.758
   90ETHO   H2156061  11.304   8.475  17.655
   90ETHO   H2356062  11.415   8.391  17.780
   91ETHO    O156063  11.404   8.601  17.790
   91ETHO    C156064  11.493   8.647  17.683
   91ETHO   H1156065  11.571   8.568  17.680
   91ETHO   H1356066  11.440   8.642  17.586
   91ETHO    C256067  11.541   8.789  17.724
   91ETHO   H2156068  11.618   8.834  17.657
   91ETHO   H2356069  11.590   8.790  17.823
   92ETHO    O156070  11.415   8.857  17.718
   92ETHO    C156071  11.428   8.986  17.785
   92ETHO   H1156072  11.446   8.973  17.894
   92ETHO   H1356073  11.521   9.029  17.740
   92ETHO    C256074  11.309   9.078  17.759
   92ETHO   H2156075  11.318   9.176  17.809
   92ETHO   H2356076  11.228   9.023  17.812
   93ETHO    O156077  11.285   9.105  17.619
   93ETHO    C156078  11.153   9.132  17.585
   93ETHO   H1156079  11.132   9.224  17.644
   93ETHO   H1356080  11.081   9.055  17.620
   93ETHO    C256081  11.140   9.163  17.441
   93ETHO   H2156082  11.030   9.169  17.423
   93ETHO   H2356083  11.175   9.090  17.365
   94ETHO    O156084  11.189   9.289  17.403
   94ETHO    C156085  11.328   9.286  17.370
   94ETHO   H1156086  11.387   9.281  17.464
   94ETHO   H1356087  11.346   9.200  17.303
   94ETHO    C256088  11.390   9.416  17.311
   94ETHO   H2156089  11.311   9.467  17.252
   94ETHO   H2356090  11.481   9.386  17.254
   95ETHO    O156091  11.453   9.503  17.403
   95ETHO    C156092  11.491   9.628  17.340
   95ETHO   H1156093  11.532   9.696  17.419
   95ETHO   H1356094  11.397   9.682  17.315
   95ETHO    C256095  11.582   9.633  17.216
   95ETHO   H2156096  11.597   9.738  17.182
   95ETHO   H2356097  11.540   9.571  17.134
   96ETHO    O156098  11.704   9.583  17.264
   96ETHO    C156099  11.802   9.571  17.161
   96ETHO   H1156100  11.887   9.513  17.203
   96ETHO   H1356101  11.761   9.519  17.072
   96ETHO    C256102  11.860   9.696  17.096
   96ETHO   H2156103  11.921   9.743  17.176
   96ETHO   H2356104  11.786   9.770  17.057
   97ETHO    O156105  11.951   9.670  16.987
   97ETHO    C156106  12.018   9.790  16.945
   97ETHO   H1156107  12.076   9.833  17.030
   97ETHO   H1356108  11.932   9.859  16.931
   97ETHO    C256109  12.090   9.760  16.806
   97ETHO   H2156110  12.147   9.665  16.817
   97ETHO   H2356111  12.168   9.839  16.794
   98ETHO    O156112  12.012   9.755  16.688
   98ETHO    C156113  12.091   9.769  16.570
   98ETHO   H1156114  12.161   9.854  16.586
   98ETHO   H1356115  12.161   9.684  16.553
   98ETHO    C256116  12.001   9.789  16.440
   98ETHO   H2156117  11.920   9.713  16.440
   98ETHO   H2356118  12.064   9.746  16.358
   99ETHO    O156119  11.965   9.918  16.401
   99ETHO    C156120  11.856   9.920  16.317
   99ETHO   H1156121  11.765   9.888  16.373
   99ETHO   H1356122  11.861   9.848  16.232
   99ETHO    C256123  11.830  10.052  16.257
   99ETHO   H2156124  11.819  10.136  16.329
   99ETHO   H2356125  11.738  10.056  16.194
  100ETHO    O156126  11.935  10.075  16.153
  100ETHO    C156127  11.918  10.203  16.092
  100ETHO   H1156128  11.811  10.227  16.076
  100ETHO   H1356129  11.965  10.282  16.154
  100ETHO    C256130  11.996  10.194  15.963
  100ETHO   H2156131  12.099  10.163  15.990
  100ETHO   H2356132  12.005  10.290  15.907
  101PROX    O156133  11.949  10.094  15.866
  101PROX    C156134  12.038  10.095  15.755
  101PROX   H1156135  12.047  10.199  15.717
  101PROX   H1356136  12.140  10.058  15.777
  101PROX    C256137  11.969  10.015  15.640
  101PROX   H2156138  11.880  10.076  15.615
  101PROX    C356139  11.930   9.873  15.667
  101PROX   H3156140  12.025   9.814  15.671
  101PROX   H3256141  11.880   9.856  15.764
  101PROX   H3356142  11.866   9.811  15.600
  102PROX    O156143  12.054  10.021  15.529
  102PROX    C156144  11.997  10.078  15.415
  102PROX   H1156145  11.919  10.154  15.435
  102PROX   H1356146  12.079  10.108  15.346
  102PROX    C256147  11.924   9.965  15.335
  102PROX   H2156148  11.842   9.929  15.401
  102PROX    C356149  12.010   9.847  15.297
  102PROX   H3156150  11.947   9.778  15.236
  102PROX   H3256151  12.103   9.870  15.241
  102PROX   H3356152  12.044   9.792  15.388
  103PROX    O156153  11.862  10.025  15.218
  103PROX    C156154  11.716  10.012  15.221
  103PROX   H1156155  11.673   9.911  15.243
  103PROX   H1356156  11.684  10.084  15.299
  103PROX    C256157  11.668  10.063  15.090
  103PROX   H2156158  11.697   9.991  15.011
  103PROX    C356159  11.721  10.199  15.038
  103PROX   H3156160  11.676  10.217  14.938
  103PROX   H3256161  11.697  10.282  15.107
  103PROX   H3356162  11.829  10.201  15.010
  104PROX    O156163  11.522  10.066  15.086
  104PROX    C156164  11.472   9.976  14.990
  104PROX   H1156165  11.504  10.023  14.895
  104PROX   H1356166  11.512   9.873  14.991
  104PROX    C256167  11.315   9.978  14.990
  104PROX   H2156168  11.272  10.080  14.989
  104PROX    C356169  11.277   9.907  15.121
  104PROX   H3156170  11.320   9.804  15.120
  104PROX   H3256171  11.322   9.967  15.203
  104PROX   H3356172  11.168   9.915  15.143
  105PROX    O156173  11.265   9.909  14.879
  105PROX    C156174  11.133   9.954  14.845
  105PROX   H1156175  11.093   9.857  14.809
  105PROX   H1356176  11.083   9.983  14.940
  105PROX    C256177  11.114  10.061  14.734
  105PROX   H2156178  11.151  10.155  14.780
  105PROX    C356179  10.970  10.096  14.689
  105PROX   H3156180  10.967  10.160  14.598
  105PROX   H3256181  10.910  10.004  14.669
  105PROX   H3356182  10.921  10.146  14.775
  106PROX    O156183  11.185  10.028  14.622
  106PROX    C156184  11.281  10.124  14.591
  106PROX   H1156185  11.246  10.214  14.536
  106PROX   H1356186  11.335  10.164  14.680
  106PROX    C256187  11.393  10.049  14.501
  106PROX   H2156188  11.344  10.007  14.411
  106PROX    C356189  11.452   9.929  14.576
  106PROX   H3156190  11.384   9.872  14.643
  106PROX   H3256191  11.489   9.863  14.495
  106PROX   H3356192  11.536   9.973  14.634
  107PROX    O156193  11.482  10.145  14.458
  107PROX    C156194  11.547  10.101  14.341
  107PROX   H1156195  11.598  10.006  14.368
  107PROX   H1356196  11.477  10.071  14.260
  107PROX    C256197  11.635  10.205  14.271
  107PROX   H2156198  11.700  10.245  14.352
  107PROX    C356199  11.552  10.305  14.195
  107PROX   H3156200  11.485  10.249  14.127
  107PROX   H3256201  11.499  10.380  14.258
  107PROX   H3356202  11.611  10.370  14.128
  108PROX    O156203  11.727  10.147  14.173
  108PROX    C156204  11.857  10.124  14.221
  108PROX   H1156205  11.861  10.103  14.330
  108PROX   H1356206  11.903  10.042  14.161
  108PROX    C256207  11.939  10.254  14.204
  108PROX   H2156208  11.889  10.334  14.262
  108PROX    C356209  11.953  10.303  14.056
  108PROX   H3156210  12.021  10.232  14.002
  108PROX   H3256211  11.858  10.304  13.999
  108PROX   H3356212  12.005  10.400  14.047
  109PROX    O156213  12.067  10.229  14.260
  109PROX    C156214  12.078  10.245  14.407
  109PROX   H1156215  12.023  10.339  14.428
  109PROX   H1356216  12.010  10.171  14.455
  109PROX    C256217  12.216  10.229  14.465
  109PROX   H2156218  12.291  10.290  14.410
  109PROX    C356219  12.263  10.084  14.464
  109PROX   H3156220  12.286  10.050  14.361
  109PROX   H3256221  12.366  10.072  14.504
  109PROX   H3356222  12.183  10.019  14.506
  110PROX    O156223  12.203  10.281  14.602
  110PROX    C156224  12.298  10.384  14.635
  110PROX   H1156225  12.314  10.461  14.557
  110PROX   H1356226  12.268  10.437  14.728
  110PROX    C256227  12.440  10.336  14.660
  110PROX   H2156228  12.465  10.279  14.568
  110PROX    C356229  12.432  10.243  14.785
  110PROX   H3156230  12.412  10.297  14.879
  110PROX   H3256231  12.359  10.161  14.768
  110PROX   H3356232  12.531  10.194  14.798
  111PROX    O156233  12.533  10.447  14.672
  111PROX    C156234  12.561  10.490  14.800
  111PROX   H1156235  12.468  10.505  14.860
  111PROX   H1356236  12.624  10.414  14.852
  111PROX    C256237  12.634  10.633  14.814
  111PROX   H2156238  12.579  10.703  14.748
  111PROX    C356239  12.787  10.637  14.780
  111PROX   H3156240  12.799  10.622  14.670
  111PROX   H3256241  12.838  10.734  14.791
  111PROX   H3356242  12.844  10.559  14.834
  112PROX    O156243  12.616  10.664  14.958
  112PROX    C156244  12.653  10.798  14.991
  112PROX   H1156245  12.758  10.794  15.027
  112PROX   H1356246  12.650  10.861  14.899
  112PROX    C256247  12.574  10.862  15.107
  112PROX   H2156248  12.635  10.952  15.131
  112PROX    C356249  12.547  10.782  15.234
  112PROX   H3156250  12.506  10.681  15.210
  112PROX   H3256251  12.636  10.770  15.300
  112PROX   H3356252  12.466  10.841  15.282
  113PROX    O156253  12.444  10.913  15.066
  113PROX    C156254  12.347  10.822  15.007
  113PROX   H1156255  12.378  10.716  15.002
  113PROX   H1356256  12.248  10.825  15.059
  113PROX    C256257  12.327  10.859  14.858
  113PROX   H2156258  12.417  10.821  14.805
  113PROX    C356259  12.302  11.015  14.836
  113PROX   H3156260  12.361  11.075  14.908
  113PROX   H3256261  12.330  11.050  14.734
  113PROX   H3356262  12.197  11.041  14.857
  114PROX    O156263  12.214  10.789  14.818
  114PROX    C156264  12.228  10.745  14.680
  114PROX   H1156265  12.253  10.838  14.624
  114PROX   H1356266  12.305  10.666  14.669
  114PROX    C256267  12.099  10.674  14.624
  114PROX   H2156268  12.079  10.581  14.681
  114PROX    C356269  12.090  10.641  14.475
  114PROX   H3156270  12.078  10.733  14.414
  114PROX   H3256271  12.177  10.581  14.442
  114PROX   H3356272  11.993  10.588  14.459
  115PROX    O156273  11.996  10.770  14.654
  115PROX    C156274  11.865  10.720  14.681
  115PROX   H1156275  11.791  10.803  14.679
  115PROX   H1356276  11.828  10.648  14.605
  115PROX    C256277  11.853  10.659  14.825
  115PROX   H2156278  11.946  10.690  14.877
  115PROX    C356279  11.846  10.510  14.842
  115PROX   H3156280  11.755  10.463  14.800
  115PROX   H3256281  11.931  10.459  14.790
  115PROX   H3356282  11.852  10.471  14.945
  116PROX    O156283  11.741  10.722  14.894
  116PROX    C156284  11.753  10.745  15.035
  116PROX   H1156285  11.651  10.754  15.078
  116PROX   H1356286  11.811  10.659  15.075
  116PROX    C256287  11.835  10.875  15.076
  116PROX   H2156288  11.934  10.874  15.026
  116PROX    C356289  11.863  10.880  15.226
  116PROX   H3156290  11.767  10.860  15.279
  116PROX   H3256291  11.938  10.805  15.257
  116PROX   H3356292  11.882  10.987  15.250
  117PROX    O156293  11.758  10.995  15.055
  117PROX    C156294  11.745  11.032  14.918
  117PROX   H1156295  11.699  10.951  14.858
  117PROX   H1356296  11.683  11.124  14.915
  117PROX    C256297  11.884  11.073  14.842
  117PROX   H2156298  11.944  10.980  14.835
  117PROX    C356299  11.964  11.185  14.924
  117PROX   H3156300  12.046  11.223  14.860
  117PROX   H3256301  11.895  11.268  14.951
  117PROX   H3356302  12.003  11.149  15.021
  118PROX    O156303  11.854  11.121  14.705
  118PROX    C156304  11.974  11.116  14.617
  118PROX   H1156305  12.042  11.201  14.638
  118PROX   H1356306  12.030  11.024  14.644
  118PROX    C256307  11.938  11.119  14.464
  118PROX   H2156308  11.883  11.215  14.450
  118PROX    C356309  11.864  10.999  14.407
  118PROX   H3156310  11.891  10.976  14.302
  118PROX   H3256311  11.900  10.917  14.473
  118PROX   H3356312  11.754  11.007  14.408
  119PROX    O156313  12.050  11.144  14.389
  119PROX    C156314  12.148  11.041  14.391
  119PROX   H1156315  12.152  10.993  14.491
  119PROX   H1356316  12.123  10.962  14.317
  119PROX    C256317  12.292  11.090  14.362
  119PROX   H2156318  12.307  11.164  14.443
  119PROX    C356319  12.316  11.164  14.230
  119PROX   H3156320  12.424  11.189  14.218
  119PROX   H3256321  12.305  11.088  14.150
  119PROX   H3356322  12.250  11.252  14.213
  120PROX    O156323  12.385  10.983  14.386
  120PROX    C156324  12.519  11.030  14.405
  120PROX   H1156325  12.578  11.072  14.320
  120PROX   H1356326  12.521  11.085  14.502
  120PROX    C256327  12.602  10.905  14.452
  120PROX   H2156328  12.540  10.849  14.524
  120PROX    C356329  12.727  10.958  14.506
  120PROX   H3156330  12.783  11.025  14.438
  120PROX   H3256331  12.708  11.012  14.602
  120PROX   H3356332  12.795  10.878  14.540
  121PROX    O156333  12.632  10.841  14.332
  121PROX    C156334  12.644  10.702  14.340
  121PROX   H1156335  12.692  10.666  14.246
  121PROX   H1356336  12.712  10.663  14.418
  121PROX    C256337  12.504  10.631  14.362
  121PROX   H2156338  12.480  10.627  14.470
  121PROX    C356339  12.517  10.487  14.319
  121PROX   H3156340  12.542  10.496  14.211
  121PROX   H3256341  12.578  10.425  14.388
  121PROX   H3356342  12.413  10.448  14.323
  122PROX    O156343  12.394  10.696  14.302
  122PROX    C156344  12.408  10.731  14.165
  122PROX   H1156345  12.440  10.837  14.154
  122PROX   H1356346  12.468  10.658  14.107
  122PROX    C256347  12.270  10.712  14.101
  122PROX   H2156348  12.193  10.765  14.161
  122PROX    C356349  12.232  10.558  14.104
  122PROX   H3156350  12.321  10.495  14.081
  122PROX   H3256351  12.196  10.524  14.204
  122PROX   H3356352  12.152  10.539  14.031
  123PROX    O156353  12.276  10.742  13.962
  123PROX    C156354  12.238  10.877  13.931
  123PROX   H1156355  12.137  10.901  13.971
  123PROX   H1356356  12.310  10.954  13.966
  123PROX    C256357  12.222  10.894  13.772
  123PROX   H2156358  12.166  10.805  13.737
  123PROX    C356359  12.363  10.883  13.705
  123PROX   H3156360  12.428  10.971  13.721
  123PROX   H3256361  12.407  10.790  13.747
  123PROX   H3356362  12.355  10.874  13.594
  124PROX    O156363  12.161  11.012  13.740
  124PROX    C156364  12.085  11.007  13.619
  124PROX   H1156365  12.071  11.116  13.602
  124PROX   H1356366  12.143  10.965  13.534
  124PROX    C256367  11.942  10.942  13.637
  124PROX   H2156368  11.881  10.987  13.555
  124PROX    C356369  11.874  10.985  13.773
  124PROX   H3156370  11.934  10.942  13.856
  124PROX   H3256371  11.876  11.096  13.780
  124PROX   H3356372  11.772  10.946  13.792
  125PROX    O156373  11.956  10.800  13.612
  125PROX    C156374  11.837  10.725  13.612
  125PROX   H1156375  11.761  10.786  13.560
  125PROX   H1356376  11.852  10.642  13.540
  125PROX    C256377  11.802  10.654  13.745
  125PROX   H2156378  11.761  10.726  13.819
  125PROX    C356379  11.925  10.589  13.823
  125PROX   H3156380  11.898  10.548  13.923
  125PROX   H3256381  11.971  10.514  13.756
  125PROX   H3356382  11.994  10.675  13.837
  126PROX    O156383  11.712  10.552  13.718
  126PROX    C156384  11.629  10.511  13.826
  126PROX   H1156385  11.637  10.401  13.835
  126PROX   H1356386  11.667  10.546  13.925
  126PROX    C256387  11.482  10.561  13.811
  126PROX   H2156388  11.438  10.522  13.716
  126PROX    C356389  11.480  10.711  13.803
  126PROX   H3156390  11.381  10.751  13.772
  126PROX   H3256391  11.489  10.745  13.908
  126PROX   H3356392  11.558  10.747  13.732
  127PROX    O156393  11.408  10.499  13.910
  127PROX    C156394  11.283  10.565  13.911
  127PROX   H1156395  11.286  10.646  13.987
  127PROX   H1356396  11.248  10.603  13.813
  127PROX    C256397  11.182  10.458  13.950
  127PROX   H2156398  11.187  10.370  13.884
  127PROX    C356399  11.047  10.526  13.952
  127PROX   H3156400  11.034  10.582  13.857
  127PROX   H3256401  10.967  10.450  13.961
  127PROX   H3356402  11.050  10.595  14.040
  128PROX    O156403  11.199  10.420  14.093
  128PROX    C156404  11.130  10.299  14.122
  128PROX   H1156405  11.021  10.319  14.109
  128PROX   H1356406  11.165  10.219  14.053
  128PROX    C256407  11.145  10.242  14.262
  128PROX   H2156408  11.251  10.251  14.292
  128PROX    C356409  11.102  10.096  14.267
  128PROX   H3156410  10.999  10.083  14.227
  128PROX   H3256411  11.177  10.030  14.218
  128PROX   H3356412  11.100  10.068  14.374
  129PROX    O156413  11.053  10.314  14.349
  129PROX    C156414  11.074  10.456  14.367
  129PROX   H1156415  11.084  10.498  14.265
  129PROX   H1356416  10.986  10.499  14.420
  129PROX    C256417  11.190  10.488  14.466
  129PROX   H2156418  11.272  10.415  14.445
  129PROX    C356419  11.139  10.495  14.609
  129PROX   H3156420  11.093  10.400  14.643
  129PROX   H3256421  11.217  10.514  14.685
  129PROX   H3356422  11.051  10.564  14.613
  130PROX    O156423  11.240  10.623  14.441
  130PROX    C156424  11.326  10.628  14.330
  130PROX   H1156425  11.421  10.584  14.367
  130PROX   H1356426  11.294  10.566  14.244
  130PROX    C256427  11.358  10.770  14.288
  130PROX   H2156428  11.410  10.814  14.376
  130PROX    C356429  11.234  10.847  14.232
  130PROX   H3156430  11.262  10.954  14.226
  130PROX   H3256431  11.194  10.825  14.131
  130PROX   H3356432  11.142  10.837  14.295
  131PROX    O156433  11.449  10.777  14.178
  131PROX    C156434  11.586  10.745  14.210
  131PROX   H1156435  11.623  10.769  14.312
  131PROX   H1356436  11.589  10.634  14.205
  131PROX    C256437  11.691  10.802  14.108
  131PROX   H2156438  11.662  10.779  14.003
  131PROX    C356439  11.841  10.755  14.130
  131PROX   H3156440  11.884  10.799  14.222
  131PROX   H3256441  11.846  10.645  14.135
  131PROX   H3356442  11.907  10.790  14.048
  132PROX    O156443  11.688  10.946  14.117
  132PROX    C156444  11.590  11.004  14.030
  132PROX   H1156445  11.619  10.994  13.923
  132PROX   H1356446  11.496  10.944  14.032
  132PROX    C256447  11.559  11.155  14.063
  132PROX   H2156448  11.566  11.159  14.174
  132PROX    C356449  11.424  11.198  14.012
  132PROX   H3156450  11.382  11.288  14.062
  132PROX   H3256451  11.425  11.222  13.904
  132PROX   H3356452  11.356  11.113  14.032
  133PROX    O156453  11.657  11.240  14.013
  133PROX    C156454  11.790  11.215  14.059
  133PROX   H1156455  11.797  11.212  14.170
  133PROX   H1356456  11.815  11.113  14.021
  133PROX    C256457  11.880  11.320  13.997
  133PROX   H2156458  11.884  11.330  13.886
  133PROX    C356459  12.026  11.295  14.047
  133PROX   H3156460  12.065  11.192  14.030
  133PROX   H3256461  12.105  11.363  14.008
  133PROX   H3356462  12.032  11.313  14.157
  134PROX    O156463  11.838  11.449  14.045
  134PROX    C156464  11.899  11.554  13.966
  134PROX   H1156465  11.928  11.632  14.040
  134PROX   H1356466  11.994  11.521  13.918
  134PROX    C256467  11.796  11.615  13.866
  134PROX   H2156468  11.748  11.532  13.809
  134PROX    C356469  11.870  11.710  13.780
  134PROX   H3156470  11.914  11.790  13.844
  134PROX   H3256471  11.948  11.660  13.718
  134PROX   H3356472  11.800  11.759  13.710
  135PROX    O156473  11.701  11.690  13.938
  135PROX    C156474  11.590  11.611  13.969
  135PROX   H1156475  11.549  11.554  13.882
  135PROX   H1356476  11.615  11.524  14.033
  135PROX    C256477  11.475  11.688  14.031
  135PROX   H2156478  11.379  11.635  14.010
  135PROX    C356479  11.467  11.828  13.958
  135PROX   H3156480  11.420  11.904  14.023
  135PROX   H3256481  11.572  11.864  13.952
  135PROX   H3356482  11.438  11.828  13.851
  136PROX    O156483  11.495  11.702  14.173
  136PROX    C156484  11.476  11.575  14.234
  136PROX   H1156485  11.404  11.518  14.171
  136PROX   H1356486  11.567  11.514  14.254
  136PROX    C256487  11.407  11.587  14.374
  136PROX   H2156488  11.311  11.640  14.357
  136PROX    C356489  11.494  11.677  14.463
  136PROX   H3156490  11.488  11.781  14.424
  136PROX   H3256491  11.445  11.681  14.562
  136PROX   H3356492  11.593  11.630  14.483
  137PROX    O156493  11.394  11.457  14.443
  137PROX    C156494  11.289  11.374  14.386
  137PROX   H1156495  11.186  11.412  14.403
  137PROX   H1356496  11.310  11.366  14.277
  137PROX    C256497  11.289  11.229  14.440
  137PROX   H2156498  11.299  11.236  14.550
  137PROX    C356499  11.404  11.146  14.388
  137PROX   H3156500  11.440  11.058  14.445
  137PROX   H3256501  11.386  11.107  14.285
  137PROX   H3356502  11.498  11.206  14.386
  138PROX    O156503  11.160  11.167  14.417
  138PROX    C156504  11.131  11.067  14.503
  138PROX   H1156505  11.192  10.979  14.473
  138PROX   H1356506  11.157  11.088  14.609
  138PROX    C256507  10.982  11.034  14.508
  138PROX   H2156508  10.951  10.970  14.422
  138PROX    C356509  10.882  11.156  14.508
  138PROX   H3156510  10.783  11.107  14.499
  138PROX   H3256511  10.891  11.223  14.597
  138PROX   H3356512  10.912  11.216  14.420
  139PROX    O156513  10.959  10.954  14.629
  139PROX    C156514  10.845  10.864  14.607
  139PROX   H1156515  10.760  10.918  14.559
  139PROX   H1356516  10.882  10.790  14.533
  139PROX    C256517  10.815  10.789  14.737
  139PROX   H2156518  10.904  10.789  14.803
  139PROX    C356519  10.784  10.638  14.719
  139PROX   H3156520  10.680  10.627  14.680
  139PROX   H3256521  10.846  10.580  14.648
  139PROX   H3356522  10.790  10.593  14.821
  140PROX    O156523  10.709  10.856  14.804
  140PROX    C156524  10.735  10.996  14.823
  140PROX   H1156525  10.838  11.021  14.856
  140PROX   H1356526  10.715  11.059  14.734
  140PROX    C256527  10.638  11.062  14.928
  140PROX   H2156528  10.650  11.016  15.028
  140PROX    C356529  10.503  11.050  14.879
  140PROX   H3156530  10.434  11.129  14.916
  140PROX   H3256531  10.493  11.063  14.770
  140PROX   H3356532  10.466  10.948  14.904
  141PROX    O156533  10.685  11.198  14.945
  141PROX    C156534  10.632  11.268  15.061
  141PROX   H1156535  10.527  11.290  15.033
  141PROX   H1356536  10.622  11.206  15.153
  141PROX    C256537  10.716  11.404  15.076
  141PROX   H2156538  10.818  11.361  15.087
  141PROX    C356539  10.667  11.471  15.199
  141PROX   H3156540  10.566  11.516  15.210
  141PROX   H3256541  10.690  11.409  15.287
  141PROX   H3356542  10.731  11.558  15.226
  142PROX    O156543  10.693  11.488  14.962
  142PROX    C156544  10.771  11.603  14.954
  142PROX   H1156545  10.732  11.651  14.862
  142PROX   H1356546  10.755  11.670  15.042
  142PROX    C256547  10.924  11.596  14.933
  142PROX   H2156548  10.964  11.565  15.032
  142PROX    C356549  10.988  11.736  14.906
  142PROX   H3156550  11.098  11.726  14.896
  142PROX   H3256551  10.957  11.785  14.811
  142PROX   H3356552  10.982  11.803  14.994
  143PROX    O156553  10.965  11.533  14.813
  143PROX    C156554  11.005  11.396  14.820
  143PROX   H1156555  10.920  11.348  14.873
  143PROX   H1356556  11.023  11.355  14.719
  143PROX    C256557  11.145  11.389  14.887
  143PROX   H2156558  11.140  11.446  14.982
  143PROX    C356559  11.258  11.441  14.805
  143PROX   H3156560  11.264  11.552  14.792
  143PROX   H3256561  11.357  11.426  14.853
  143PROX   H3356562  11.260  11.408  14.699
  144PROX    O156563  11.181  11.254  14.924
  144PROX    C156564  11.089  11.193  15.011
  144PROX   H1156565  11.076  11.261  15.098
  144PROX   H1356566  10.994  11.177  14.955
  144PROX    C256567  11.151  11.057  15.056
  144PROX   H2156568  11.255  11.074  15.089
  144PROX    C356569  11.161  10.956  14.946
  144PROX   H3156570  11.244  10.883  14.955
  144PROX   H3256571  11.065  10.906  14.922
  144PROX   H3356572  11.180  11.019  14.857
  145PROX    O156573  11.085  11.006  15.175
  145PROX    C156574  11.108  11.083  15.294
  145PROX   H1156575  11.188  11.031  15.353
  145PROX   H1356576  11.142  11.187  15.279
  145PROX    C256577  10.982  11.076  15.385
  145PROX   H2156578  10.944  10.972  15.397
  145PROX    C356579  10.874  11.164  15.323
  145PROX   H3156580  10.894  11.273  15.338
  145PROX   H3256581  10.869  11.145  15.214
  145PROX   H3356582  10.774  11.129  15.354
  146PROX    O156583  11.021  11.128  15.513
  146PROX    C156584  11.083  11.020  15.590
  146PROX   H1156585  11.012  10.990  15.670
  146PROX   H1356586  11.103  10.929  15.529
  146PROX    C256587  11.221  11.063  15.658
  146PROX   H2156588  11.307  11.063  15.588
  146PROX    C356589  11.261  10.963  15.767
  146PROX   H3156590  11.364  10.980  15.803
  146PROX   H3256591  11.192  10.967  15.854
  146PROX   H3356592  11.252  10.857  15.732
  147PROX    O156593  11.194  11.185  15.719
  147PROX    C156594  11.288  11.280  15.671
  147PROX   H1156595  11.328  11.266  15.569
  147PROX   H1356596  11.230  11.374  15.679
  147PROX    C256597  11.414  11.292  15.770
  147PROX   H2156598  11.472  11.198  15.782
  147PROX    C356599  11.367  11.327  15.910
  147PROX   H3156600  11.297  11.413  15.908
  147PROX   H3256601  11.314  11.243  15.960
  147PROX   H3356602  11.446  11.356  15.982
  148PROX    O156603  11.499  11.400  15.733
  148PROX    C156604  11.560  11.387  15.609
  148PROX   H1156605  11.606  11.286  15.605
  148PROX   H1356606  11.488  11.408  15.527
  148PROX    C256607  11.674  11.492  15.597
  148PROX   H2156608  11.741  11.479  15.684
  148PROX    C356609  11.625  11.638  15.597
  148PROX   H3156610  11.576  11.681  15.507
  148PROX   H3256611  11.557  11.647  15.685
  148PROX   H3356612  11.705  11.705  15.635
  149PROX    O156613  11.742  11.465  15.472
  149PROX    C156614  11.832  11.355  15.488
  149PROX   H1156615  11.902  11.369  15.573
  149PROX   H1356616  11.784  11.256  15.507
  149PROX    C256617  11.907  11.334  15.356
  149PROX   H2156618  11.956  11.427  15.322
  149PROX    C356619  11.823  11.278  15.238
  149PROX   H3156620  11.782  11.177  15.261
  149PROX   H3256621  11.736  11.344  15.220
  149PROX   H3356622  11.890  11.276  15.149
  150PROX    O156623  12.000  11.237  15.375
  150PROX    C156624  12.132  11.262  15.319
  150PROX   H1156625  12.114  11.274  15.210
  150PROX   H1356626  12.185  11.351  15.359
  150PROX    C256627  12.241  11.153  15.350
  150PROX   H2156628  12.330  11.175  15.287
  150PROX    C356629  12.185  11.016  15.313
  150PROX   H3156630  12.142  11.022  15.211
  150PROX   H3256631  12.257  10.932  15.317
  150PROX   H3356632  12.099  10.993  15.380
  151PROX    O156633  12.282  11.161  15.484
  151PROX    C156634  12.371  11.057  15.526
  151PROX   H1156635  12.425  11.005  15.443
  151PROX   H1356636  12.447  11.106  15.591
  151PROX    C256637  12.283  10.951  15.612
  151PROX   H2156638  12.227  10.890  15.539
  151PROX    C356639  12.174  11.022  15.688
  151PROX   H3156640  12.123  11.102  15.630
  151PROX   H3256641  12.109  10.951  15.743
  151PROX   H3356642  12.224  11.076  15.772
  152PROX    O156643  12.369  10.874  15.696
  152PROX    C156644  12.430  10.772  15.618
  152PROX   H1156645  12.365  10.720  15.544
  152PROX   H1356646  12.520  10.807  15.563
  152PROX    C256647  12.481  10.653  15.699
  152PROX   H2156648  12.398  10.619  15.764
  152PROX    C356649  12.603  10.703  15.780
  152PROX   H3156650  12.653  10.625  15.842
  152PROX   H3256651  12.682  10.737  15.709
  152PROX   H3356652  12.582  10.792  15.843
  153PROX    O156653  12.527  10.547  15.620
  153PROX    C156654  12.538  10.427  15.693
  153PROX   H1156655  12.635  10.424  15.747
  153PROX   H1356656  12.449  10.415  15.759
  153PROX    C256657  12.540  10.308  15.598
  153PROX   H2156658  12.475  10.326  15.510
  153PROX    C356659  12.504  10.167  15.646
  153PROX   H3156660  12.395  10.163  15.664
  153PROX   H3256661  12.524  10.088  15.570
  153PROX   H3356662  12.540  10.155  15.750
  154PROX    O156663  12.670  10.269  15.543
  154PROX    C156664  12.728  10.373  15.468
  154PROX   H1156665  12.708  10.473  15.513
  154PROX   H1356666  12.839  10.366  15.479
  154PROX    C256667  12.697  10.362  15.319
  154PROX   H2156668  12.696  10.256  15.284
  154PROX    C356669  12.790  10.452  15.238
  154PROX   H3156670  12.791  10.555  15.278
  154PROX   H3256671  12.892  10.412  15.255
  154PROX   H3356672  12.757  10.456  15.132
  155PROX    O156673  12.568  10.414  15.300
  155PROX    C156674  12.512  10.397  15.168
  155PROX   H1156675  12.509  10.498  15.123
  155PROX   H1356676  12.567  10.325  15.103
  155PROX    C256677  12.364  10.343  15.176
  155PROX   H2156678  12.324  10.398  15.264
  155PROX    C356679  12.368  10.198  15.212
  155PROX   H3156680  12.421  10.140  15.133
  155PROX   H3256681  12.438  10.195  15.299
  155PROX   H3356682  12.265  10.163  15.230
  156PROX    O156683  12.289  10.368  15.055
  156PROX    C156684  12.146  10.343  15.061
  156PROX   H1156685  12.117  10.359  14.955
  156PROX   H1356686  12.130  10.237  15.089
  156PROX    C256687  12.057  10.442  15.147
  156PROX   H2156688  11.955  10.417  15.113
  156PROX    C356689  12.096  10.587  15.121
  156PROX   H3156690  12.095  10.602  15.011
  156PROX   H3256691  12.019  10.657  15.160
  156PROX   H3356692  12.194  10.612  15.166
  157PROX    O156693  12.081  10.420  15.285
  157PROX    C156694  11.981  10.479  15.369
  157PROX   H1156695  11.910  10.540  15.310
  157PROX   H1356696  11.922  10.409  15.431
  157PROX    C256697  12.041  10.576  15.474
  157PROX   H2156698  12.103  10.648  15.416
  157PROX    C356699  12.126  10.510  15.590
  157PROX   H3156700  12.193  10.591  15.627
  157PROX   H3256701  12.056  10.470  15.667
  157PROX   H3356702  12.194  10.429  15.555
  158PROX    O156703  11.934  10.644  15.527
  158PROX    C156704  11.959  10.779  15.563
  158PROX   H1156705  12.024  10.782  15.653
  158PROX   H1356706  12.009  10.836  15.482
  158PROX    C256707  11.824  10.841  15.594
  158PROX   H2156708  11.755  10.816  15.511
  158PROX    C356709  11.815  10.999  15.605
  158PROX   H3156710  11.710  11.035  15.601
  158PROX   H3256711  11.852  11.025  15.707
  158PROX   H3356712  11.878  11.048  15.528
  159PROX    O156713  11.773  10.774  15.707
  159PROX    C156714  11.637  10.730  15.703
  159PROX   H1156715  11.576  10.823  15.701
  159PROX   H1356716  11.619  10.671  15.611
  159PROX    C256717  11.609  10.649  15.834
  159PROX   H2156718  11.646  10.716  15.915
  159PROX    C356719  11.708  10.533  15.846
  159PROX   H3156720  11.816  10.559  15.850
  159PROX   H3256721  11.692  10.479  15.942
  159PROX   H3356722  11.681  10.458  15.769
  160PROX    O156723  11.476  10.624  15.845
  160PROX    C156724  11.424  10.513  15.774
  160PROX   H1156725  11.453  10.511  15.666
  160PROX   H1356726  11.455  10.420  15.826
  160PROX    C256727  11.266  10.520  15.760
  160PROX   H2156728  11.235  10.622  15.727
  160PROX    C356729  11.204  10.475  15.892
  160PROX   H3156730  11.258  10.381  15.918
  160PROX   H3256731  11.204  10.550  15.973
  160PROX   H3356732  11.099  10.441  15.876
  161PROX    O156733  11.216  10.422  15.667
  161PROX    C156734  11.203  10.475  15.536
  161PROX   H1156735  11.283  10.547  15.511
  161PROX   H1356736  11.206  10.390  15.464
  161PROX    C256737  11.055  10.532  15.513
  161PROX   H2156738  11.045  10.622  15.577
  161PROX    C356739  10.950  10.434  15.563
  161PROX   H3156740  10.957  10.436  15.674
  161PROX   H3256741  10.851  10.478  15.539
  161PROX   H3356742  10.957  10.329  15.529
  162PROX    O156743  11.055  10.578  15.381
  162PROX    C156744  10.929  10.635  15.336
  162PROX   H1156745  10.837  10.574  15.350
  162PROX   H1356746  10.906  10.727  15.393
  162PROX    C256747  10.942  10.670  15.180
  162PROX   H2156748  11.042  10.713  15.157
  162PROX    C356749  10.836  10.777  15.152
  162PROX   H3156750  10.733  10.735  15.160
  162PROX   H3256751  10.861  10.865  15.215
  162PROX   H3356752  10.833  10.816  15.047
  163PROX    O156753  10.903  10.554  15.102
  163PROX    C156754  11.002  10.499  15.011
  163PROX   H1156755  10.962  10.423  14.942
  163PROX   H1356756  11.052  10.586  14.961
  163PROX    C256757  11.109  10.419  15.092
  163PROX   H2156758  11.114  10.462  15.194
  163PROX    C356759  11.250  10.421  15.015
  163PROX   H3156760  11.296  10.522  15.004
  163PROX   H3256761  11.319  10.346  15.059
  163PROX   H3356762  11.226  10.387  14.912
  164PROX    O156763  11.068  10.286  15.099
  164PROX    C156764  10.980  10.261  15.201
  164PROX   H1156765  11.025  10.287  15.300
  164PROX   H1356766  10.889  10.324  15.200
  164PROX    C256767  10.927  10.115  15.201
  164PROX   H2156768  11.008  10.039  15.197
  164PROX    C356769  10.829  10.099  15.074
  164PROX   H3156770  10.749  10.175  15.065
  164PROX   H3256771  10.886  10.100  14.979
  164PROX   H3356772  10.782   9.999  15.080
  165PROX    O156773  10.837  10.086  15.309
  165PROX    C156774  10.903  10.043  15.430
  165PROX   H1156775  10.993  10.108  15.445
  165PROX   H1356776  10.830  10.050  15.513
  165PROX    C256777  10.947   9.887  15.421
  165PROX   H2156778  10.997   9.870  15.323
  165PROX    C356779  10.828   9.795  15.447
  165PROX   H3156780  10.749   9.800  15.369
  165PROX   H3256781  10.873   9.693  15.456
  165PROX   H3356782  10.788   9.843  15.539
  166ETHO    O156783  11.057   9.870  15.506
  166ETHO    C156784  11.165   9.787  15.468
  166ETHO   H1156785  11.225   9.839  15.390
  166ETHO   H1356786  11.124   9.694  15.422
  166ETHO    C256787  11.260   9.756  15.584
  166ETHO   H2156788  11.225   9.667  15.640
  166ETHO   H2356789  11.259   9.840  15.656
  167ETHO    O156790  11.392   9.728  15.551
  167ETHO    C156791  11.455   9.650  15.646
  167ETHO   H1156792  11.425   9.700  15.740
  167ETHO   H1356793  11.411   9.549  15.631
  167ETHO    C256794  11.606   9.652  15.628
  167ETHO   H2156795  11.647   9.753  15.604
  167ETHO   H2356796  11.629   9.575  15.552
  168ETHO    O156797  11.681   9.599  15.734
  168ETHO    C156798  11.650   9.459  15.760
  168ETHO   H1156799  11.629   9.414  15.660
  168ETHO   H1356800  11.564   9.446  15.829
  168ETHO    C256801  11.767   9.383  15.807
  168ETHO   H2156802  11.851   9.415  15.742
  168ETHO   H2356803  11.753   9.275  15.783
  169ETHO    O156804  11.807   9.403  15.943
  169ETHO    C156805  11.867   9.532  15.967
  169ETHO   H1156806  11.922   9.563  15.876
  169ETHO   H1356807  11.796   9.616  15.986
  169ETHO    C256808  11.971   9.524  16.080
  169ETHO   H2156809  12.049   9.595  16.046
  169ETHO   H2356810  12.032   9.432  16.084
  170ETHO    O156811  11.925   9.575  16.201
  170ETHO    C156812  11.840   9.481  16.264
  170ETHO   H1156813  11.778   9.428  16.189
  170ETHO   H1356814  11.772   9.528  16.338
  170ETHO    C256815  11.923   9.371  16.341
  170ETHO   H2156816  11.970   9.298  16.272
  170ETHO   H2356817  11.837   9.318  16.388
  171ETHO    O156818  12.005   9.423  16.449
  171ETHO    C156819  12.141   9.394  16.425
  171ETHO   H1156820  12.139   9.293  16.379
  171ETHO   H1356821  12.183   9.468  16.353
  171ETHO    C256822  12.222   9.388  16.557
  171ETHO   H2156823  12.229   9.484  16.613
  171ETHO   H2356824  12.328   9.386  16.522
  172ETHO    O156825  12.200   9.275  16.639
  172ETHO    C156826  12.096   9.300  16.739
  172ETHO   H1156827  11.999   9.315  16.687
  172ETHO   H1356828  12.116   9.397  16.788
  172ETHO    C256829  12.090   9.207  16.859
  172ETHO   H2156830  12.026   9.259  16.933
  172ETHO   H2356831  12.195   9.182  16.887
  173ETHO    O156832  12.026   9.080  16.838
  173ETHO    C156833  12.033   8.988  16.954
  173ETHO   H1156834  12.017   8.888  16.909
  173ETHO   H1356835  12.140   8.989  16.986
  173ETHO    C256836  11.925   9.027  17.061
  173ETHO   H2156837  11.822   9.041  17.022
  173ETHO   H2356838  11.919   8.935  17.124
  174ETHO    O156839  11.965   9.138  17.141
  174ETHO    C156840  11.900   9.149  17.264
  174ETHO   H1156841  11.888   9.050  17.313
  174ETHO   H1356842  11.964   9.207  17.335
  174ETHO    C256843  11.755   9.211  17.246
  174ETHO   H2156844  11.770   9.258  17.146
  174ETHO   H2356845  11.741   9.296  17.316
  175ETHO    O156846  11.654   9.114  17.233
  175ETHO    C156847  11.613   9.052  17.355
  175ETHO   H1156848  11.694   8.982  17.382
  175ETHO   H1356849  11.604   9.120  17.442
  175ETHO    C256850  11.479   8.983  17.322
  175ETHO   H2156851  11.444   9.015  17.221
  175ETHO   H2356852  11.422   9.004  17.414
  176ETHO    O156853  11.479   8.846  17.306
  176ETHO    C156854  11.358   8.785  17.347
  176ETHO   H1156855  11.389   8.681  17.370
  176ETHO   H1356856  11.315   8.839  17.434
  176ETHO    C256857  11.259   8.769  17.234
  176ETHO   H2156858  11.177   8.697  17.257
  176ETHO   H2356859  11.306   8.747  17.136
  177ETHO    O156860  11.190   8.892  17.218
  177ETHO    C156861  11.135   8.907  17.086
  177ETHO   H1156862  11.068   8.822  17.062
  177ETHO   H1356863  11.214   8.913  17.008
  177ETHO    C256864  11.045   9.031  17.058
  177ETHO   H2156865  11.023   9.039  16.949
  177ETHO   H2356866  11.094   9.125  17.091
  178ETHO    O156867  10.922   9.023  17.126
  178ETHO    C156868  10.841   9.140  17.128
  178ETHO   H1156869  10.897   9.205  17.198
  178ETHO   H1356870  10.847   9.193  17.031
  178ETHO    C256871  10.701   9.098  17.155
  178ETHO   H2156872  10.636   9.183  17.186
  178ETHO   H2356873  10.704   9.029  17.242
  179ETHO    O156874  10.645   9.033  17.044
  179ETHO    C156875  10.502   9.025  17.055
  179ETHO   H1156876  10.464   9.055  17.155
  179ETHO   H1356877  10.483   8.919  17.029
  179ETHO    C256878  10.444   9.113  16.945
  179ETHO   H2156879  10.333   9.106  16.939
  179ETHO   H2356880  10.474   9.071  16.847
  180ETHO    O156881  10.477   9.251  16.961
  180ETHO    C156882  10.384   9.321  17.041
  180ETHO   H1156883  10.281   9.307  17.002
  180ETHO   H1356884  10.376   9.272  17.140
  180ETHO    C256885  10.404   9.469  17.057
  180ETHO   H2156886  10.308   9.501  17.101
  180ETHO   H2356887  10.406   9.526  16.961
  181ETHO    O156888  10.507   9.510  17.148
  181ETHO    C156889  10.520   9.655  17.164
  181ETHO   H1156890  10.415   9.687  17.176
  181ETHO   H1356891  10.563   9.702  17.073
  181ETHO    C256892  10.594   9.700  17.287
  181ETHO   H2156893  10.683   9.638  17.310
  181ETHO   H2356894  10.525   9.673  17.371
  182ETHO    O156895  10.632   9.840  17.304
  182ETHO    C156896  10.743   9.852  17.390
  182ETHO   H1156897  10.703   9.855  17.493
  182ETHO   H1356898  10.821   9.773  17.382
  182ETHO    C256899  10.822   9.984  17.366
  182ETHO   H2156900  10.857   9.960  17.263
  182ETHO   H2356901  10.908   9.982  17.435
  183ETHO    O156902  10.738  10.100  17.382
  183ETHO    C156903  10.799  10.211  17.313
  183ETHO   H1156904  10.810  10.197  17.203
  183ETHO   H1356905  10.902  10.234  17.348
  183ETHO    C256906  10.717  10.335  17.345
  183ETHO   H2156907  10.764  10.420  17.292
  183ETHO   H2356908  10.726  10.356  17.454
  184ETHO    O156909  10.586  10.325  17.284
  184ETHO    C156910  10.512  10.443  17.322
  184ETHO   H1156911  10.522  10.459  17.432
  184ETHO   H1356912  10.560  10.530  17.272
  184ETHO    C256913  10.364  10.434  17.274
  184ETHO   H2156914  10.324  10.331  17.281
  184ETHO   H2356915  10.351  10.469  17.169
  185ETHO    O156916  10.284  10.521  17.354
  185ETHO    C156917  10.146  10.530  17.319
  185ETHO   H1156918  10.138  10.543  17.209
  185ETHO   H1356919  10.100  10.431  17.343
  185ETHO    C256920  10.085  10.643  17.402
  185ETHO   H2156921  10.129  10.654  17.503
  185ETHO   H2356922   9.975  10.634  17.415
  186ETHO    O156923  10.108  10.765  17.338
  186ETHO    C156924  10.047  10.882  17.398
  186ETHO   H1156925   9.938  10.877  17.379
  186ETHO   H1356926  10.061  10.867  17.507
  186ETHO    C256927  10.091  11.016  17.348
  186ETHO   H2156928  10.008  11.088  17.332
  186ETHO   H2356929  10.143  11.006  17.250
  187ETHO    O156930  10.190  11.080  17.423
  187ETHO    C156931  10.228  11.213  17.378
  187ETHO   H1156932  10.295  11.205  17.290
  187ETHO   H1356933  10.136  11.267  17.348
  187ETHO    C256934  10.289  11.297  17.493
  187ETHO   H2156935  10.339  11.379  17.438
  187ETHO   H2356936  10.366  11.248  17.556
  188ETHO    O156937  10.205  11.366  17.577
  188ETHO    C156938  10.119  11.292  17.660
  188ETHO   H1156939  10.184  11.213  17.703
  188ETHO   H1356940  10.044  11.238  17.599
  188ETHO    C256941  10.053  11.374  17.767
  188ETHO   H2156942  10.111  11.458  17.810
  188ETHO   H2356943  10.015  11.305  17.845
  189ETHO    O156944   9.945  11.432  17.713
  189ETHO    C156945   9.882  11.528  17.806
  189ETHO   H1156946   9.870  11.482  17.907
  189ETHO   H1356947   9.944  11.619  17.818
  189ETHO    C256948   9.741  11.559  17.758
  189ETHO   H2156949   9.748  11.599  17.654
  189ETHO   H2356950   9.699  11.640  17.821
  190ETHO    O156951   9.659  11.444  17.752
  190ETHO    C156952   9.545  11.472  17.684
  190ETHO   H1156953   9.569  11.499  17.579
  190ETHO   H1356954   9.501  11.563  17.733
  190ETHO    C256955   9.446  11.356  17.700
  190ETHO   H2156956   9.507  11.272  17.661
  190ETHO   H2356957   9.365  11.380  17.628
  191ETHO    O156958   9.411  11.326  17.831
  191ETHO    C156959   9.300  11.239  17.829
  191ETHO   H1156960   9.215  11.298  17.787
  191ETHO   H1356961   9.326  11.156  17.760
  191ETHO    C256962   9.247  11.197  17.971
  191ETHO   H2156963   9.152  11.141  17.959
  191ETHO   H2356964   9.212  11.284  18.030
  192ETHO    O156965   9.344  11.120  18.042
  192ETHO    C156966   9.342  10.979  18.008
  192ETHO   H1156967   9.335  10.981  17.897
  192ETHO   H1356968   9.256  10.923  18.052
  192ETHO    C256969   9.468  10.920  18.069
  192ETHO   H2156970   9.462  10.809  18.072
  192ETHO   H2356971   9.483  10.951  18.175
  193ETHO    O156972   9.574  10.970  17.998
  193ETHO    C156973   9.694  10.916  18.057
  193ETHO   H1156974   9.703  10.914  18.168
  193ETHO   H1356975   9.709  10.813  18.018
  193ETHO    C256976   9.817  10.992  18.009
  193ETHO   H2156977   9.814  11.035  17.906
  193ETHO   H2356978   9.901  10.920  18.023
  194ETHO    O156979   9.837  11.101  18.096
  194ETHO    C156980   9.972  11.136  18.095
  194ETHO   H1156981   9.995  11.169  17.991
  194ETHO   H1356982  10.036  11.048  18.119
  194ETHO    C256983  10.014  11.247  18.196
  194ETHO   H2156984  10.125  11.249  18.189
  194ETHO   H2356985   9.971  11.218  18.294
  195ETHO    O156986   9.948  11.371  18.171
  195ETHO    C156987   9.964  11.467  18.272
  195ETHO   H1156988   9.914  11.431  18.365
  195ETHO   H1356989  10.072  11.464  18.298
  195ETHO    C256990   9.912  11.606  18.223
  195ETHO   H2156991   9.885  11.665  18.313
  195ETHO   H2356992   9.828  11.588  18.153
  196ETHO    O156993  10.012  11.680  18.155
  196ETHO    C156994  10.103  11.750  18.232
  196ETHO   H1156995  10.053  11.844  18.264
  196ETHO   H1356996  10.132  11.683  18.315
  196ETHO    C256997  10.223  11.788  18.147
  196ETHO   H2156998  10.260  11.709  18.079
  196ETHO   H2356999  10.297  11.816  18.225
  197ETHO    O157000  10.190  11.898  18.063
  197ETHO    C157001  10.299  11.951  17.992
  197ETHO   H1157002  10.370  12.012  18.051
  197ETHO   H1357003  10.361  11.871  17.946
  197ETHO    C257004  10.239  12.028  17.870
  197ETHO   H2157005  10.322  12.072  17.812
  197ETHO   H2357006  10.174  12.110  17.907
  198ETHO    O157007  10.157  11.950  17.790
  198ETHO    C157008  10.108  12.033  17.682
  198ETHO   H1157009  10.058  12.124  17.723
  198ETHO   H1357010  10.195  12.063  17.620
  198ETHO    C257011  10.016  11.946  17.594
  198ETHO   H2157012   9.951  12.027  17.554
  198ETHO   H2357013   9.952  11.884  17.661
  199ETHO    O157014  10.083  11.865  17.494
  199ETHO    C157015  10.010  11.747  17.471
  199ETHO   H1157016   9.931  11.761  17.394
  199ETHO   H1357017   9.951  11.721  17.562
  199ETHO    C257018  10.097  11.640  17.419
  199ETHO   H2157019  10.047  11.545  17.448
  199ETHO   H2357020  10.196  11.635  17.469
  200ETHO    O157021  10.101  11.649  17.279
  200ETHO    C157022  10.206  11.580  17.220
  200ETHO   H1157023  10.297  11.643  17.234
  200ETHO   H1357024  10.210  11.479  17.267
  200ETHO    C257025  10.192  11.542  17.073
  200ETHO   H2157026  10.269  11.464  17.055
  200ETHO   H2357027  10.193  11.632  17.007
  201ETHO    O157028  10.065  11.478  17.049
  201ETHO    C157029  10.064  11.432  16.911
  201ETHO   H1157030  10.109  11.497  16.833
  201ETHO   H1357031   9.957  11.435  16.882
  201ETHO    C257032  10.112  11.285  16.898
  201ETHO   H2157033  10.065  11.248  16.805
  201ETHO   H2357034  10.066  11.224  16.979
  202ETHO    O157035  10.256  11.274  16.906
  202ETHO    C157036  10.298  11.141  16.939
  202ETHO   H1157037  10.281  11.130  17.048
  202ETHO   H1357038  10.230  11.064  16.899
  202ETHO    C257039  10.444  11.128  16.905
  202ETHO   H2157040  10.451  11.157  16.798
  202ETHO   H2357041  10.476  11.021  16.910
  203ETHO    O157042  10.508  11.218  16.992
  203ETHO    C157043  10.648  11.198  17.023
  203ETHO   H1157044  10.703  11.200  16.927
  203ETHO   H1357045  10.666  11.097  17.064
  203ETHO    C257046  10.695  11.288  17.136
  203ETHO   H2157047  10.805  11.280  17.147
  203ETHO   H2357048  10.656  11.276  17.240
  204ETHO    O157049  10.668  11.418  17.107
  204ETHO    C157050  10.721  11.508  17.201
  204ETHO   H1157051  10.673  11.495  17.300
  204ETHO   H1357052  10.828  11.485  17.215
  204ETHO    C257053  10.700  11.653  17.168
  204ETHO   H2157054  10.766  11.665  17.079
  204ETHO   H2357055  10.734  11.725  17.246
  205ETHO    O157056  10.570  11.701  17.123
  205ETHO    C157057  10.579  11.829  17.068
  205ETHO   H1157058  10.648  11.813  16.982
  205ETHO   H1357059  10.632  11.899  17.136
  205ETHO    C257060  10.441  11.877  17.020
  205ETHO   H2157061  10.369  11.888  17.104
  205ETHO   H2357062  10.399  11.802  16.950
  206ETHO    O157063  10.447  12.010  16.961
  206ETHO    C157064  10.497  12.008  16.828
  206ETHO   H1157065  10.554  11.918  16.795
  206ETHO   H1357066  10.411  12.023  16.759
  206ETHO    C257067  10.591  12.138  16.808
  206ETHO   H2157068  10.686  12.135  16.866
  206ETHO   H2357069  10.620  12.138  16.701
  207ETHO    O157070  10.519  12.255  16.832
  207ETHO    C157071  10.600  12.370  16.859
  207ETHO   H1157072  10.685  12.347  16.927
  207ETHO   H1357073  10.538  12.427  16.931
  207ETHO    C257074  10.646  12.440  16.729
  207ETHO   H2157075  10.663  12.549  16.742
  207ETHO   H2357076  10.559  12.425  16.661
  208ETHO    O157077  10.759  12.380  16.662
  208ETHO    C157078  10.788  12.427  16.534
  208ETHO   H1157079  10.705  12.411  16.462
  208ETHO   H1357080  10.806  12.536  16.553
  208ETHO    C257081  10.924  12.382  16.487
  208ETHO   H2157082  11.003  12.407  16.561
  208ETHO   H2357083  10.957  12.438  16.397
  209ETHO    O157084  10.932  12.253  16.430
  209ETHO    C157085  10.897  12.147  16.521
  209ETHO   H1157086  10.788  12.142  16.544
  209ETHO   H1357087  10.960  12.164  16.611
  209ETHO    C257088  10.938  12.010  16.464
  209ETHO   H2157089  10.895  12.017  16.362
  209ETHO   H2357090  10.886  11.933  16.526
  210ETHO    O157091  11.074  11.978  16.449
  210ETHO    C157092  11.135  11.953  16.571
  210ETHO   H1157093  11.165  12.046  16.623
  210ETHO   H1357094  11.080  11.882  16.636
  210ETHO    C257095  11.278  11.885  16.546
  210ETHO   H2157096  11.274  11.794  16.483
  210ETHO   H2357097  11.309  11.861  16.650
  211ETHO    O157098  11.371  11.982  16.494
  211ETHO    C157099  11.497  11.928  16.464
  211ETHO   H1157100  11.526  11.846  16.533
  211ETHO   H1357101  11.492  11.894  16.358
  211ETHO    C257102  11.602  12.049  16.470
  211ETHO   H2157103  11.709  12.021  16.459
  211ETHO   H2357104  11.602  12.103  16.568
  212ETHO    O157105  11.571  12.131  16.356
  212ETHO    C157106  11.666  12.239  16.350
  212ETHO   H1157107  11.669  12.320  16.426
  212ETHO   H1357108  11.765  12.191  16.333
  212ETHO    C257109  11.630  12.306  16.215
  212ETHO   H2157110  11.686  12.401  16.218
  212ETHO   H2357111  11.521  12.326  16.213
  213ETHO    O157112  11.663  12.226  16.100
  213ETHO    C157113  11.632  12.288  15.972
  213ETHO   H1157114  11.532  12.336  15.974
  213ETHO   H1357115  11.708  12.369  15.971
  213ETHO    C257116  11.649  12.183  15.860
  213ETHO   H2157117  11.746  12.129  15.870
  213ETHO   H2357118  11.653  12.221  15.756
  214ETHO    O157119  11.543  12.092  15.874
  214ETHO    C157120  11.535  12.016  15.750
  214ETHO   H1157121  11.628  11.955  15.742
  214ETHO   H1357122  11.526  12.074  15.656
  214ETHO    C257123  11.414  11.922  15.764
  214ETHO   H2157124  11.326  11.986  15.788
  214ETHO   H2357125  11.415  11.846  15.844
  215ETHO    O157126  11.387  11.866  15.639
  215ETHO    C157127  11.268  11.793  15.645
  215ETHO   H1157128  11.250  11.754  15.747
  215ETHO   H1357129  11.190  11.868  15.622
  215ETHO    C257130  11.251  11.669  15.549
  215ETHO   H2157131  11.151  11.625  15.568
  215ETHO   H2357132  11.322  11.589  15.581
  216ETHO    O157133  11.273  11.708  15.412
  216ETHO    C157134  11.331  11.605  15.336
  216ETHO   H1157135  11.416  11.553  15.386
  216ETHO   H1357136  11.375  11.646  15.243
  216ETHO    C257137  11.228  11.494  15.297
  216ETHO   H2157138  11.201  11.500  15.189
  216ETHO   H2357139  11.134  11.511  15.352
  217ETHO    O157140  11.288  11.361  15.315
  217ETHO    C157141  11.401  11.338  15.223
  217ETHO   H1157142  11.355  11.333  15.121
  217ETHO   H1357143  11.481  11.415  15.224
  217ETHO    C257144  11.499  11.225  15.251
  217ETHO   H2157145  11.553  11.237  15.347
  217ETHO   H2357146  11.572  11.236  15.168
  218ETHO    O157147  11.430  11.098  15.244
  218ETHO    C157148  11.506  10.992  15.292
  218ETHO   H1157149  11.515  10.999  15.403
  218ETHO   H1357150  11.606  11.011  15.247
  218ETHO    C257151  11.440  10.859  15.238
  218ETHO   H2157152  11.437  10.850  15.127
  218ETHO   H2357153  11.333  10.859  15.266
  219ETHO    O157154  11.508  10.747  15.283
  219ETHO    C157155  11.430  10.631  15.253
  219ETHO   H1157156  11.337  10.628  15.314
  219ETHO   H1357157  11.400  10.633  15.146
  219ETHO    C257158  11.507  10.500  15.278
  219ETHO   H2157159  11.605  10.517  15.229
  219ETHO   H2357160  11.449  10.414  15.240
  220ETHO    O157161  11.527  10.480  15.418
  220ETHO    C157162  11.618  10.374  15.440
  220ETHO   H1157163  11.688  10.417  15.515
  220ETHO   H1357164  11.684  10.342  15.356
  220ETHO    C257165  11.553  10.250  15.504
  220ETHO   H2157166  11.464  10.220  15.444
  220ETHO   H2357167  11.507  10.281  15.601
  221ETHO    O157168  11.642  10.144  15.519
  221ETHO    C157169  11.582  10.027  15.579
  221ETHO   H1157170  11.485   9.999  15.533
  221ETHO   H1357171  11.645   9.938  15.559
  221ETHO    C257172  11.567  10.031  15.730
  221ETHO   H2157173  11.664  10.065  15.771
  221ETHO   H2357174  11.552   9.926  15.763
  222ETHO    O157175  11.456  10.111  15.762
  222ETHO    C157176  11.437  10.114  15.905
  222ETHO   H1157177  11.524  10.149  15.965
  222ETHO   H1357178  11.355  10.188  15.921
  222ETHO    C257179  11.384   9.986  15.967
  222ETHO   H2157180  11.334   9.924  15.890
  222ETHO   H2357181  11.327  10.003  16.060
  223ETHO    O157182  11.491   9.900  16.006
  223ETHO    C157183  11.444   9.789  16.092
  223ETHO   H1157184  11.398   9.839  16.179
  223ETHO   H1357185  11.380   9.718  16.036
  223ETHO    C257186  11.569   9.706  16.141
  223ETHO   H2157187  11.643   9.783  16.171
  223ETHO   H2357188  11.609   9.635  16.066
  224ETHO    O157189  11.538   9.629  16.256
  224ETHO    C157190  11.466   9.515  16.233
  224ETHO   H1157191  11.370   9.545  16.188
  224ETHO   H1357192  11.529   9.462  16.158
  224ETHO    C257193  11.444   9.451  16.367
  224ETHO   H2157194  11.358   9.381  16.368
  224ETHO   H2357195  11.422   9.524  16.448
  225ETHO    O157196  11.560   9.373  16.383
  225ETHO    C157197  11.560   9.311  16.519
  225ETHO   H1157198  11.631   9.227  16.517
  225ETHO   H1357199  11.472   9.247  16.543
  225ETHO    C257200  11.628   9.403  16.629
  225ETHO   H2157201  11.716   9.451  16.582
  225ETHO   H2357202  11.665   9.341  16.714
  226ETHO    O157203  11.557   9.510  16.681
  226ETHO    C157204  11.633   9.601  16.760
  226ETHO   H1157205  11.603   9.585  16.865
  226ETHO   H1357206  11.741   9.577  16.748
  226ETHO    C257207  11.621   9.752  16.725
  226ETHO   H2157208  11.634   9.770  16.616
  226ETHO   H2357209  11.707   9.804  16.771
  227ETHO    O157210  11.495   9.811  16.761
  227ETHO    C157211  11.405   9.809  16.653
  227ETHO   H1157212  11.384   9.702  16.632
  227ETHO   H1357213  11.443   9.857  16.560
  227ETHO    C257214  11.282   9.887  16.688
  227ETHO   H2157215  11.230   9.922  16.596
  227ETHO   H2357216  11.309   9.985  16.731
  228ETHO    O157217  11.183   9.820  16.767
  228ETHO    C157218  11.064   9.886  16.781
  228ETHO   H1157219  11.067   9.958  16.866
  228ETHO   H1357220  11.026   9.928  16.685
  228ETHO    C257221  10.969   9.782  16.838
  228ETHO   H2157222  10.984   9.688  16.781
  228ETHO   H2357223  10.866   9.825  16.833
  229ETHO    O157224  10.979   9.762  16.976
  229ETHO    C157225  10.875   9.681  17.026
  229ETHO   H1157226  10.804   9.640  16.952
  229ETHO   H1357227  10.804   9.744  17.083
  229ETHO    C257228  10.934   9.586  17.122
  229ETHO   H2157229  11.026   9.539  17.082
  229ETHO   H2357230  10.861   9.504  17.138
  230ETHO    O157231  10.956   9.644  17.246
  230ETHO    C157232  11.015   9.554  17.335
  230ETHO   H1157233  11.066   9.473  17.279
  230ETHO   H1357234  11.088   9.605  17.401
  230ETHO    C257235  10.913   9.502  17.439
  230ETHO   H2157236  10.842   9.581  17.471
  230ETHO   H2357237  10.955   9.466  17.535
  231ETHO    O157238  10.839   9.394  17.375
  231ETHO    C157239  10.731   9.358  17.458
  231ETHO   H1157240  10.658   9.313  17.388
  231ETHO   H1357241  10.691   9.450  17.506
  231ETHO    C257242  10.758   9.248  17.570
  231ETHO   H2157243  10.855   9.273  17.618
  231ETHO   H2357244  10.775   9.150  17.519
  232ETHO    O157245  10.657   9.243  17.668
  232ETHO    C157246  10.659   9.126  17.749
  232ETHO   H1157247  10.600   9.043  17.704
  232ETHO   H1357248  10.757   9.079  17.770
  232ETHO    C257249  10.604   9.138  17.892
  232ETHO   H2157250  10.665   9.201  17.960
  232ETHO   H2357251  10.602   9.040  17.942
  233ETHO    O157252  10.476   9.190  17.893
  233ETHO    C157253  10.451   9.278  17.997
  233ETHO   H1157254  10.517   9.367  17.994
  233ETHO   H1357255  10.351   9.325  17.981
  233ETHO    C257256  10.444   9.217  18.129
  233ETHO   H2157257  10.454   9.303  18.198
  233ETHO   H2357258  10.521   9.147  18.169
  234ETHO    O157259  10.312   9.166  18.174
  234ETHO    C157260  10.318   9.061  18.270
  234ETHO   H1157261  10.349   8.975  18.207
  234ETHO   H1357262  10.405   9.092  18.331
  234ETHO    C257263  10.185   9.040  18.348
  234ETHO   H2157264  10.137   9.129  18.395
  234ETHO   H2357265  10.204   8.974  18.434
  235ETHO    O157266  10.095   8.966  18.269
  235ETHO    C157267   9.984   8.918  18.352
  235ETHO   H1157268   9.968   8.989  18.436
  235ETHO   H1357269   9.896   8.912  18.285
  235ETHO    C257270  10.013   8.778  18.392
  235ETHO   H2157271  10.089   8.734  18.324
  235ETHO   H2357272   9.923   8.714  18.400
  236ETHO    O157273  10.073   8.782  18.521
  236ETHO    C157274  10.136   8.658  18.551
  236ETHO   H1157275  10.226   8.634  18.490
  236ETHO   H1357276  10.055   8.583  18.532
  236ETHO    C257277  10.171   8.662  18.704
  236ETHO   H2157278  10.220   8.566  18.730
  236ETHO   H2357279  10.084   8.683  18.769
  237ETHO    O157280  10.268   8.763  18.736
  237ETHO    C157281  10.398   8.736  18.688
  237ETHO   H1157282  10.441   8.641  18.726
  237ETHO   H1357283  10.387   8.722  18.578
  237ETHO    C257284  10.496   8.854  18.708
  237ETHO   H2157285  10.457   8.945  18.657
  237ETHO   H2357286  10.593   8.826  18.661
  238ETHO    O157287  10.507   8.880  18.842
  238ETHO    C157288  10.639   8.906  18.883
  238ETHO   H1157289  10.679   8.996  18.831
  238ETHO   H1357290  10.710   8.828  18.851
  238ETHO    C257291  10.648   8.938  19.040
  238ETHO   H2157292  10.573   9.014  19.071
  238ETHO   H2357293  10.748   8.984  19.054
  239ETHO    O157294  10.642   8.824  19.123
  239ETHO    C157295  10.643   8.859  19.261
  239ETHO   H1157296  10.644   8.968  19.284
  239ETHO   H1357297  10.552   8.807  19.299
  239ETHO    C257298  10.764   8.802  19.333
  239ETHO   H2157299  10.862   8.843  19.298
  239ETHO   H2357300  10.758   8.831  19.440
  240ETHO    O157301  10.765   8.657  19.324
  240ETHO    C157302  10.820   8.598  19.437
  240ETHO   H1157303  10.911   8.659  19.460
  240ETHO   H1357304  10.870   8.504  19.405
  240ETHO    C257305  10.716   8.573  19.537
  240ETHO   H2157306  10.656   8.486  19.502
  240ETHO   H2357307  10.645   8.658  19.552
  241ETHO    O157308  10.765   8.535  19.659
  241ETHO    C157309  10.659   8.491  19.741
  241ETHO   H1157310  10.595   8.576  19.772
  241ETHO   H1357311  10.600   8.406  19.700
  241ETHO    C257312  10.726   8.431  19.868
  241ETHO   H2157313  10.808   8.365  19.832
  241ETHO   H2357314  10.650   8.373  19.925
  242ETHO    O157315  10.777   8.535  19.948
  242ETHO    C157316  10.853   8.488  20.059
  242ETHO   H1157317  10.935   8.560  20.081
  242ETHO   H1357318  10.898   8.388  20.045
  242ETHO    C257319  10.768   8.483  20.189
  242ETHO   H2157320  10.707   8.576  20.183
  242ETHO   H2357321  10.842   8.488  20.271
  243ETHO    O157322  10.687   8.373  20.207
  243ETHO    C157323  10.744   8.276  20.296
  243ETHO   H1157324  10.829   8.228  20.244
  243ETHO   H1357325  10.778   8.314  20.394
  243ETHO    C257326  10.648   8.154  20.315
  243ETHO   H2157327  10.710   8.074  20.361
  243ETHO   H2357328  10.613   8.115  20.217
  244ETHO    O157329  10.541   8.172  20.403
  244ETHO    C157330  10.450   8.061  20.384
  244ETHO   H1157331  10.499   7.961  20.386
  244ETHO   H1357332  10.409   8.063  20.281
  244ETHO    C257333  10.338   8.059  20.481
  244ETHO   H2157334  10.255   7.994  20.444
  244ETHO   H2357335  10.302   8.162  20.506
  245ETHO    O157336  10.370   7.985  20.597
  245ETHO    C157337  10.341   7.843  20.579
  245ETHO   H1157338  10.231   7.834  20.566
  245ETHO   H1357339  10.384   7.811  20.481
  245ETHO    C257340  10.388   7.747  20.693
  245ETHO   H2157341  10.315   7.665  20.711
  245ETHO   H2357342  10.399   7.803  20.788
  246ETHO    O157343  10.514   7.696  20.665
  246ETHO    C157344  10.532   7.570  20.733
  246ETHO   H1157345  10.458   7.499  20.690
  246ETHO   H1357346  10.506   7.573  20.841
  246ETHO    C257347  10.664   7.489  20.720
  246ETHO   H2157348  10.667   7.402  20.789
  246ETHO   H2357349  10.754   7.547  20.751
  247ETHO    O157350  10.671   7.437  20.589
  247ETHO    C157351  10.776   7.343  20.575
  247ETHO   H1157352  10.867   7.393  20.615
  247ETHO   H1357353  10.752   7.258  20.642
  247ETHO    C257354  10.794   7.288  20.437
  247ETHO   H2157355  10.855   7.196  20.448
  247ETHO   H2357356  10.694   7.270  20.392
  248ETHO    O157357  10.865   7.374  20.343
  248ETHO    C157358  10.896   7.288  20.234
  248ETHO   H1157359  10.933   7.186  20.256
  248ETHO   H1357360  10.805   7.272  20.172
  248ETHO    C257361  11.000   7.353  20.140
  248ETHO   H2157362  11.024   7.277  20.062
  248ETHO   H2357363  11.095   7.381  20.190
  249ETHO    O157364  10.951   7.458  20.059
  249ETHO    C157365  10.928   7.573  20.127
  249ETHO   H1157366  10.828   7.578  20.175
  249ETHO   H1357367  11.005   7.585  20.206
  249ETHO    C257368  10.938   7.693  20.027
  249ETHO   H2157369  10.891   7.785  20.069
  249ETHO   H2357370  10.885   7.660  19.935
  250ETHO    O157371  11.071   7.720  19.999
  250ETHO    C157372  11.096   7.796  19.878
  250ETHO   H1157373  11.015   7.868  19.859
  250ETHO   H1357374  11.187   7.856  19.900
  250ETHO    C257375  11.134   7.708  19.762
  250ETHO   H2157376  11.216   7.641  19.795
  250ETHO   H2357377  11.162   7.764  19.670
  251ETHO    O157378  11.025   7.618  19.720
  251ETHO    C157379  10.919   7.683  19.647
  251ETHO   H1157380  10.947   7.778  19.596
  251ETHO   H1357381  10.848   7.711  19.727
  251ETHO    C257382  10.842   7.591  19.556
  251ETHO   H2157383  10.802   7.501  19.608
  251ETHO   H2357384  10.916   7.553  19.483
  252ETHO    O157385  10.749   7.667  19.489
  252ETHO    C157386  10.671   7.589  19.396
  252ETHO   H1157387  10.732   7.538  19.318
  252ETHO   H1357388  10.608   7.513  19.447
  252ETHO    C257389  10.582   7.677  19.313
  252ETHO   H2157390  10.502   7.727  19.371
  252ETHO   H2357391  10.533   7.617  19.233
  253ETHO    O157392  10.649   7.777  19.237
  253ETHO    C157393  10.564   7.886  19.202
  253ETHO   H1157394  10.517   7.925  19.295
  253ETHO   H1357395  10.487   7.839  19.136
  253ETHO    C257396  10.627   7.999  19.131
  253ETHO   H2157397  10.559   8.085  19.113
  253ETHO   H2357398  10.663   7.969  19.030
  254ETHO    O157399  10.738   8.054  19.206
  254ETHO    C157400  10.810   8.154  19.134
  254ETHO   H1157401  10.738   8.224  19.087
  254ETHO   H1357402  10.871   8.204  19.212
  254ETHO    C257403  10.904   8.098  19.023
  254ETHO   H2157404  10.954   8.187  18.979
  254ETHO   H2357405  10.835   8.054  18.947
  255ETHO    O157406  11.002   8.008  19.068
  255ETHO    C157407  11.088   7.966  18.963
  255ETHO   H1157408  11.035   7.985  18.867
  255ETHO   H1357409  11.107   7.857  18.970
  255ETHO    C257410  11.228   8.039  18.984
  255ETHO   H2157411  11.209   8.148  18.974
  255ETHO   H2357412  11.303   8.011  18.907
  256ETHO    O157413  11.297   8.021  19.106
  256ETHO    C157414  11.416   8.105  19.111
  256ETHO   H1157415  11.465   8.111  19.011
  256ETHO   H1357416  11.398   8.213  19.129
  256ETHO    C257417  11.531   8.061  19.205
  256ETHO   H2157418  11.479   8.067  19.303
  256ETHO   H2357419  11.614   8.136  19.205
  257ETHO    O157420  11.581   7.934  19.173
  257ETHO    C157421  11.658   7.897  19.284
  257ETHO   H1157422  11.589   7.897  19.371
  257ETHO   H1357423  11.746   7.961  19.305
  257ETHO    C257424  11.722   7.761  19.254
  257ETHO   H2157425  11.802   7.736  19.326
  257ETHO   H2357426  11.754   7.753  19.147
  258ETHO    O157427  11.619   7.668  19.284
  258ETHO    C157428  11.669   7.534  19.277
  258ETHO   H1157429  11.774   7.520  19.246
  258ETHO   H1357430  11.686   7.509  19.384
  258ETHO    C257431  11.579   7.432  19.206
  258ETHO   H2157432  11.477   7.448  19.246
  258ETHO   H2357433  11.623   7.330  19.219
  259ETHO    O157434  11.568   7.459  19.064
  259ETHO    C157435  11.479   7.362  19.007
  259ETHO   H1157436  11.512   7.257  19.024
  259ETHO   H1357437  11.376   7.378  19.045
  259ETHO    C257438  11.460   7.388  18.855
  259ETHO   H2157439  11.563   7.402  18.816
  259ETHO   H2357440  11.409   7.486  18.843
  260ETHO    O157441  11.393   7.275  18.798
  260ETHO    C157442  11.404   7.271  18.656
  260ETHO   H1157443  11.421   7.376  18.626
  260ETHO   H1357444  11.488   7.208  18.619
  260ETHO    C257445  11.263   7.223  18.602
  260ETHO   H2157446  11.268   7.229  18.491
  260ETHO   H2357447  11.186   7.294  18.636
  261ETHO    O157448  11.218   7.096  18.639
  261ETHO    C157449  11.093   7.060  18.571
  261ETHO   H1157450  11.016   7.132  18.606
  261ETHO   H1357451  11.111   7.063  18.462
  261ETHO    C257452  11.036   6.930  18.623
  261ETHO   H2157453  11.116   6.856  18.642
  261ETHO   H2357454  10.959   6.890  18.553
  262ETHO    O157455  10.973   6.956  18.747
  262ETHO    C157456  10.936   6.836  18.818
  262ETHO   H1157457  10.876   6.766  18.755
  262ETHO   H1357458  10.879   6.875  18.905
  262ETHO    C257459  11.046   6.751  18.889
  262ETHO   H2157460  11.147   6.777  18.849
  262ETHO   H2357461  11.027   6.647  18.855
  263ETHO    O157462  11.037   6.757  19.036
  263ETHO    C157463  11.075   6.877  19.088
  263ETHO   H1157464  11.000   6.955  19.062
  263ETHO   H1357465  11.162   6.923  19.036
  263ETHO    C257466  11.113   6.874  19.238
  263ETHO   H2157467  11.169   6.961  19.277
  263ETHO   H2357468  11.168   6.781  19.264
  264ETHO    O157469  10.986   6.863  19.297
  264ETHO    C157470  11.007   6.847  19.440
  264ETHO   H1157471  10.931   6.906  19.497
  264ETHO   H1357472  11.100   6.904  19.462
  264ETHO    C257473  11.016   6.699  19.488
  264ETHO   H2157474  11.051   6.709  19.593
  264ETHO   H2357475  11.100   6.660  19.428
  265ETHO    O157476  10.903   6.622  19.483
  265ETHO    C157477  10.933   6.480  19.504
  265ETHO   H1157478  10.990   6.442  19.416
  265ETHO   H1357479  10.992   6.465  19.597
  265ETHO    C257480  10.803   6.399  19.521
  265ETHO   H2157481  10.836   6.293  19.524
  265ETHO   H2357482  10.748   6.416  19.426
  265ETHO    OZ57483  10.732   6.444  19.631
  265ETHO   HZ157484  10.657   6.385  19.644
    1ETHO    O157485  10.068   0.741   7.418
    1ETHO   HO157486  10.061   0.823   7.370
    1ETHO    C157487  10.109   0.788   7.544
    1ETHO   H1157488  10.049   0.880   7.564
    1ETHO   H1357489  10.216   0.816   7.537
    1ETHO    C257490  10.088   0.682   7.651
    1ETHO   H2157491  10.145   0.696   7.746
    1ETHO   H2357492  10.127   0.582   7.622
    2ETHO    O157493   9.949   0.676   7.684
    2ETHO    C157494   9.924   0.583   7.783
    2ETHO   H1157495   9.943   0.479   7.748
    2ETHO   H1357496   9.982   0.592   7.878
    2ETHO    C257497   9.772   0.599   7.825
    2ETHO   H2157498   9.748   0.511   7.889
    2ETHO   H2357499   9.704   0.594   7.738
    3ETHO    O157500   9.731   0.718   7.896
    3ETHO    C157501   9.589   0.720   7.918
    3ETHO   H1157502   9.568   0.644   7.996
    3ETHO   H1357503   9.530   0.700   7.826
    3ETHO    C257504   9.569   0.856   7.977
    3ETHO   H2157505   9.639   0.871   8.063
    3ETHO   H2357506   9.467   0.859   8.020
    4ETHO    O157507   9.591   0.962   7.886
    4ETHO    C157508   9.561   1.080   7.952
    4ETHO   H1157509   9.454   1.093   7.982
    4ETHO   H1357510   9.631   1.093   8.037
    4ETHO    C257511   9.596   1.210   7.873
    4ETHO   H2157512   9.699   1.187   7.839
    4ETHO   H2357513   9.594   1.298   7.941
    5ETHO    O157514   9.506   1.224   7.755
    5ETHO    C157515   9.552   1.333   7.675
    5ETHO   H1157516   9.465   1.368   7.616
    5ETHO   H1357517   9.578   1.415   7.745
    5ETHO    C257518   9.673   1.298   7.596
    5ETHO   H2157519   9.737   1.225   7.651
    5ETHO   H2357520   9.734   1.384   7.562
    6ETHO    O157521   9.637   1.229   7.479
    6ETHO    C157522   9.635   1.308   7.365
    6ETHO   H1157523   9.566   1.394   7.375
    6ETHO   H1357524   9.739   1.342   7.342
    6ETHO    C257525   9.586   1.230   7.243
    6ETHO   H2157526   9.486   1.183   7.252
    6ETHO   H2357527   9.650   1.139   7.241
    7ETHO    O157528   9.605   1.302   7.117
    7ETHO    C157529   9.616   1.220   7.002
    7ETHO   H1157530   9.722   1.187   7.002
    7ETHO   H1357531   9.557   1.126   6.998
    7ETHO    C257532   9.599   1.301   6.866
    7ETHO   H2157533   9.492   1.330   6.866
    7ETHO   H2357534   9.618   1.233   6.780
    8ETHO    O157535   9.697   1.402   6.855
    8ETHO    C157536   9.645   1.496   6.755
    8ETHO   H1157537   9.535   1.487   6.744
    8ETHO   H1357538   9.687   1.479   6.654
    8ETHO    C257539   9.676   1.639   6.781
    8ETHO   H2157540   9.646   1.695   6.690
    8ETHO   H2357541   9.778   1.663   6.816
    9ETHO    O157542   9.591   1.693   6.881
    9ETHO    C157543   9.639   1.821   6.923
    9ETHO   H1157544   9.719   1.798   6.996
    9ETHO   H1357545   9.686   1.881   6.842
    9ETHO    C257546   9.539   1.906   7.001
    9ETHO   H2157547   9.586   1.988   7.059
    9ETHO   H2357548   9.495   1.837   7.077
   10ETHO    O157549   9.432   1.960   6.919
   10ETHO    C157550   9.356   2.065   6.992
   10ETHO   H1157551   9.432   2.124   7.046
   10ETHO   H1357552   9.285   2.017   7.063
   10ETHO    C257553   9.276   2.164   6.906
   10ETHO   H2157554   9.190   2.201   6.966
   10ETHO   H2357555   9.232   2.113   6.817
   11ETHO    O157556   9.342   2.287   6.878
   11ETHO    C157557   9.285   2.338   6.757
   11ETHO   H1157558   9.305   2.262   6.678
   11ETHO   H1357559   9.177   2.362   6.770
   11ETHO    C257560   9.364   2.471   6.723
   11ETHO   H2157561   9.473   2.453   6.735
   11ETHO   H2357562   9.351   2.492   6.614
   12ETHO    O157563   9.329   2.586   6.805
   12ETHO    C157564   9.321   2.695   6.718
   12ETHO   H1157565   9.254   2.673   6.632
   12ETHO   H1357566   9.423   2.708   6.675
   12ETHO    C257567   9.278   2.818   6.790
   12ETHO   H2157568   9.194   2.797   6.860
   12ETHO   H2357569   9.244   2.896   6.719
   13ETHO    O157570   9.380   2.885   6.866
   13ETHO    C157571   9.356   2.873   7.006
   13ETHO   H1157572   9.248   2.893   7.024
   13ETHO   H1357573   9.376   2.767   7.030
   13ETHO    C257574   9.452   2.967   7.082
   13ETHO   H2157575   9.552   2.940   7.042
   13ETHO   H2357576   9.448   2.932   7.188
   14ETHO    O157577   9.425   3.111   7.065
   14ETHO    C157578   9.526   3.193   7.122
   14ETHO   H1157579   9.612   3.179   7.054
   14ETHO   H1357580   9.557   3.151   7.220
   14ETHO    C257581   9.481   3.341   7.134
   14ETHO   H2157582   9.409   3.359   7.217
   14ETHO   H2357583   9.422   3.377   7.048
   15ETHO    O157584   9.597   3.423   7.149
   15ETHO    C157585   9.655   3.429   7.283
   15ETHO   H1157586   9.637   3.335   7.340
   15ETHO   H1357587   9.762   3.455   7.277
   15ETHO    C257588   9.584   3.533   7.368
   15ETHO   H2157589   9.569   3.623   7.305
   15ETHO   H2357590   9.479   3.502   7.388
   16ETHO    O157591   9.648   3.575   7.488
   16ETHO    C157592   9.636   3.715   7.517
   16ETHO   H1157593   9.690   3.768   7.435
   16ETHO   H1357594   9.530   3.744   7.502
   16ETHO    C257595   9.680   3.755   7.659
   16ETHO   H2157596   9.684   3.866   7.658
   16ETHO   H2357597   9.778   3.711   7.689
   17ETHO    O157598   9.591   3.721   7.764
   17ETHO    C157599   9.480   3.810   7.771
   17ETHO   H1157600   9.503   3.919   7.767
   17ETHO   H1357601   9.410   3.793   7.687
   17ETHO    C257602   9.390   3.783   7.898
   17ETHO   H2157603   9.381   3.673   7.908
   17ETHO   H2357604   9.286   3.821   7.885
   18ETHO    O157605   9.449   3.832   8.014
   18ETHO    C157606   9.381   3.795   8.133
   18ETHO   H1157607   9.280   3.753   8.117
   18ETHO   H1357608   9.438   3.706   8.167
   18ETHO    C257609   9.387   3.905   8.234
   18ETHO   H2157610   9.488   3.952   8.231
   18ETHO   H2357611   9.371   3.849   8.329
   19ETHO    O157612   9.289   4.006   8.219
   19ETHO    C157613   9.317   4.114   8.296
   19ETHO   H1157614   9.397   4.100   8.372
   19ETHO   H1357615   9.222   4.143   8.345
   19ETHO    C257616   9.367   4.241   8.217
   19ETHO   H2157617   9.355   4.322   8.293
   19ETHO   H2357618   9.296   4.262   8.134
   20ETHO    O157619   9.497   4.220   8.157
   20ETHO    C157620   9.570   4.338   8.129
   20ETHO   H1157621   9.593   4.387   8.226
   20ETHO   H1357622   9.659   4.312   8.069
   20ETHO    C257623   9.499   4.446   8.039
   20ETHO   H2157624   9.427   4.395   7.972
   20ETHO   H2357625   9.580   4.494   7.980
   21ETHO    O157626   9.431   4.537   8.124
   21ETHO    C157627   9.416   4.659   8.050
   21ETHO   H1157628   9.370   4.633   7.953
   21ETHO   H1357629   9.517   4.695   8.021
   21ETHO    C257630   9.346   4.766   8.133
   21ETHO   H2157631   9.388   4.862   8.096
   21ETHO   H2357632   9.387   4.753   8.235
   22ETHO    O157633   9.206   4.766   8.123
   22ETHO    C157634   9.145   4.685   8.220
   22ETHO   H1157635   9.190   4.583   8.222
   22ETHO   H1357636   9.154   4.720   8.325
   22ETHO    C257637   8.992   4.687   8.199
   22ETHO   H2157638   8.956   4.657   8.098
   22ETHO   H2357639   8.950   4.612   8.269
   23ETHO    O157640   8.956   4.816   8.242
   23ETHO    C157641   8.965   4.919   8.146
   23ETHO   H1157642   8.922   4.888   8.048
   23ETHO   H1357643   9.070   4.945   8.119
   23ETHO    C257644   8.891   5.039   8.194
   23ETHO   H2157645   8.920   5.072   8.296
   23ETHO   H2357646   8.786   5.004   8.203
   24ETHO    O157647   8.905   5.148   8.105
   24ETHO    C157648   8.833   5.264   8.151
   24ETHO   H1157649   8.829   5.273   8.261
   24ETHO   H1357650   8.883   5.354   8.109
   24ETHO    C257651   8.686   5.260   8.099
   24ETHO   H2157652   8.648   5.167   8.147
   24ETHO   H2357653   8.681   5.260   7.988
   25ETHO    O157654   8.610   5.367   8.149
   25ETHO    C157655   8.471   5.334   8.143
   25ETHO   H1157656   8.445   5.255   8.217
   25ETHO   H1357657   8.447   5.293   8.043
   25ETHO    C257658   8.371   5.448   8.169
   25ETHO   H2157659   8.391   5.479   8.273
   25ETHO   H2357660   8.269   5.405   8.165
   26ETHO    O157661   8.376   5.561   8.085
   26ETHO    C157662   8.271   5.654   8.114
   26ETHO   H1157663   8.170   5.610   8.131
   26ETHO   H1357664   8.308   5.686   8.214
   26ETHO    C257665   8.259   5.772   8.026
   26ETHO   H2157666   8.358   5.782   7.977
   26ETHO   H2357667   8.230   5.860   8.088
   27ETHO    O157668   8.174   5.744   7.914
   27ETHO    C157669   8.143   5.862   7.841
   27ETHO   H1157670   8.103   5.942   7.907
   27ETHO   H1357671   8.077   5.841   7.754
   27ETHO    C257672   8.264   5.929   7.769
   27ETHO   H2157673   8.342   5.960   7.842
   27ETHO   H2357674   8.238   6.016   7.705
   28ETHO    O157675   8.313   5.830   7.672
   28ETHO    C157676   8.383   5.891   7.557
   28ETHO   H1157677   8.305   5.946   7.501
   28ETHO   H1357678   8.451   5.976   7.579
   28ETHO    C257679   8.454   5.790   7.466
   28ETHO   H2157680   8.469   5.832   7.364
   28ETHO   H2357681   8.389   5.700   7.462
   29ETHO    O157682   8.578   5.758   7.527
   29ETHO    C157683   8.656   5.672   7.443
   29ETHO   H1157684   8.638   5.703   7.338
   29ETHO   H1357685   8.627   5.567   7.461
   29ETHO    C257686   8.803   5.672   7.482
   29ETHO   H2157687   8.860   5.597   7.425
   29ETHO   H2357688   8.816   5.636   7.586
   30ETHO    O157689   8.851   5.802   7.464
   30ETHO    C157690   8.993   5.810   7.488
   30ETHO   H1157691   9.016   5.777   7.592
   30ETHO   H1357692   9.044   5.748   7.411
   30ETHO    C257693   9.041   5.948   7.466
   30ETHO   H2157694   9.138   5.962   7.518
   30ETHO   H2357695   8.968   6.021   7.506
   31ETHO    O157696   9.058   5.966   7.328
   31ETHO    C157697   9.072   6.102   7.290
   31ETHO   H1157698   8.968   6.140   7.294
   31ETHO   H1357699   9.142   6.144   7.365
   31ETHO    C257700   9.129   6.124   7.147
   31ETHO   H2157701   9.222   6.065   7.131
   31ETHO   H2357702   9.152   6.229   7.118
   32ETHO    O157703   9.032   6.077   7.063
   32ETHO    C157704   9.072   6.094   6.928
   32ETHO   H1157705   9.060   6.203   6.914
   32ETHO   H1357706   9.176   6.067   6.898
   32ETHO    C257707   8.981   6.022   6.827
   32ETHO   H2157708   9.004   6.065   6.727
   32ETHO   H2357709   8.873   6.034   6.849
   33ETHO    O157710   9.018   5.879   6.842
   33ETHO    C157711   9.037   5.807   6.718
   33ETHO   H1157712   9.112   5.854   6.650
   33ETHO   H1357713   9.068   5.709   6.759
   33ETHO    C257714   8.907   5.786   6.645
   33ETHO   H2157715   8.832   5.735   6.710
   33ETHO   H2357716   8.924   5.708   6.568
   34ETHO    O157717   8.840   5.891   6.581
   34ETHO    C157718   8.703   5.856   6.541
   34ETHO   H1157719   8.633   5.874   6.625
   34ETHO   H1357720   8.709   5.752   6.503
   34ETHO    C257721   8.665   5.942   6.421
   34ETHO   H2157722   8.694   6.048   6.436
   34ETHO   H2357723   8.556   5.939   6.399
   35ETHO    O157724   8.734   5.895   6.303
   35ETHO    C157725   8.701   5.975   6.189
   35ETHO   H1157726   8.594   5.998   6.172
   35ETHO   H1357727   8.759   6.069   6.195
   35ETHO    C257728   8.731   5.907   6.046
   35ETHO   H2157729   8.835   5.870   6.034
   35ETHO   H2357730   8.718   5.993   5.977
   36ETHO    O157731   8.640   5.813   6.004
   36ETHO    C157732   8.662   5.773   5.869
   36ETHO   H1157733   8.762   5.726   5.860
   36ETHO   H1357734   8.656   5.847   5.786
   36ETHO    C257735   8.552   5.667   5.846
   36ETHO   H2157736   8.541   5.609   5.940
   36ETHO   H2357737   8.586   5.613   5.755
   37ETHO    O157738   8.435   5.720   5.787
   37ETHO    C157739   8.334   5.617   5.773
   37ETHO   H1157740   8.374   5.517   5.745
   37ETHO   H1357741   8.277   5.597   5.866
   37ETHO    C257742   8.231   5.650   5.664
   37ETHO   H2157743   8.196   5.755   5.657
   37ETHO   H2357744   8.138   5.589   5.660
   38ETHO    O157745   8.278   5.628   5.530
   38ETHO    C157746   8.194   5.697   5.435
   38ETHO   H1157747   8.194   5.808   5.435
   38ETHO   H1357748   8.092   5.652   5.439
   38ETHO    C257749   8.263   5.669   5.301
   38ETHO   H2157750   8.373   5.673   5.317
   38ETHO   H2357751   8.237   5.757   5.239
   39ETHO    O157752   8.213   5.556   5.228
   39ETHO    C157753   8.318   5.478   5.169
   39ETHO   H1157754   8.360   5.536   5.084
   39ETHO   H1357755   8.405   5.467   5.238
   39ETHO    C257756   8.281   5.338   5.112
   39ETHO   H2157757   8.365   5.302   5.048
   39ETHO   H2357758   8.188   5.345   5.052
   40ETHO    O157759   8.259   5.234   5.205
   40ETHO    C157760   8.266   5.107   5.140
   40ETHO   H1157761   8.351   5.098   5.069
   40ETHO   H1357762   8.171   5.110   5.083
   40ETHO    C257763   8.257   4.993   5.240
   40ETHO   H2157764   8.246   4.900   5.180
   40ETHO   H2357765   8.165   5.006   5.301
   41ETHO    O157766   8.365   4.985   5.330
   41ETHO    C157767   8.390   4.860   5.392
   41ETHO   H1157768   8.374   4.766   5.335
   41ETHO   H1357769   8.498   4.870   5.418
   41ETHO    C257770   8.307   4.846   5.523
   41ETHO   H2157771   8.304   4.946   5.572
   41ETHO   H2357772   8.354   4.775   5.595
   42ETHO    O157773   8.184   4.798   5.482
   42ETHO    C157774   8.092   4.776   5.591
   42ETHO   H1157775   8.142   4.716   5.670
   42ETHO   H1357776   8.065   4.874   5.637
   42ETHO    C257777   7.975   4.690   5.544
   42ETHO   H2157778   7.962   4.725   5.439
   42ETHO   H2357779   7.883   4.707   5.605
   43ETHO    O157780   7.992   4.549   5.551
   43ETHO    C157781   8.092   4.500   5.462
   43ETHO   H1157782   8.095   4.565   5.372
   43ETHO   H1357783   8.190   4.504   5.514
   43ETHO    C257784   8.085   4.358   5.415
   43ETHO   H2157785   8.153   4.350   5.328
   43ETHO   H2357786   7.983   4.334   5.378
   44ETHO    O157787   8.120   4.259   5.516
   44ETHO    C157788   8.262   4.250   5.518
   44ETHO   H1157789   8.308   4.204   5.427
   44ETHO   H1357790   8.322   4.344   5.524
   44ETHO    C257791   8.289   4.157   5.639
   44ETHO   H2157792   8.397   4.130   5.648
   44ETHO   H2357793   8.245   4.055   5.629
   45ETHO    O157794   8.250   4.217   5.761
   45ETHO    C157795   8.295   4.130   5.859
   45ETHO   H1157796   8.400   4.156   5.882
   45ETHO   H1357797   8.287   4.022   5.836
   45ETHO    C257798   8.219   4.158   6.001
   45ETHO   H2157799   8.181   4.060   6.038
   45ETHO   H2357800   8.126   4.219   5.993
   46ETHO    O157801   8.310   4.206   6.103
   46ETHO    C157802   8.252   4.221   6.230
   46ETHO   H1157803   8.143   4.238   6.223
   46ETHO   H1357804   8.259   4.126   6.286
   46ETHO    C257805   8.299   4.335   6.320
   46ETHO   H2157806   8.242   4.329   6.415
   46ETHO   H2357807   8.296   4.440   6.283
   47ETHO    O157808   8.433   4.314   6.371
   47ETHO    C157809   8.492   4.438   6.417
   47ETHO   H1157810   8.430   4.480   6.499
   47ETHO   H1357811   8.482   4.513   6.337
   47ETHO    C257812   8.629   4.405   6.478
   47ETHO   H2157813   8.691   4.360   6.398
   47ETHO   H2357814   8.619   4.342   6.568
   48ETHO    O157815   8.696   4.528   6.517
   48ETHO    C157816   8.819   4.508   6.575
   48ETHO   H1157817   8.812   4.434   6.658
   48ETHO   H1357818   8.886   4.472   6.495
   48ETHO    C257819   8.885   4.636   6.625
   48ETHO   H2157820   8.980   4.604   6.672
   48ETHO   H2357821   8.889   4.701   6.535
   49ETHO    O157822   8.815   4.700   6.731
   49ETHO    C157823   8.866   4.825   6.773
   49ETHO   H1157824   8.875   4.896   6.688
   49ETHO   H1357825   8.969   4.813   6.813
   49ETHO    C257826   8.779   4.895   6.873
   49ETHO   H2157827   8.830   4.977   6.927
   49ETHO   H2357828   8.758   4.811   6.943
   50ETHO    O157829   8.659   4.940   6.818
   50ETHO    C157830   8.584   5.020   6.912
   50ETHO   H1157831   8.507   4.952   6.956
   50ETHO   H1357832   8.641   5.060   6.998
   50ETHO    C257833   8.510   5.131   6.836
   50ETHO   H2157834   8.437   5.180   6.905
   50ETHO   H2357835   8.455   5.094   6.747
   51ETHO    O157836   8.611   5.228   6.802
   51ETHO    C157837   8.551   5.345   6.744
   51ETHO   H1157838   8.462   5.368   6.808
   51ETHO   H1357839   8.512   5.315   6.645
   51ETHO    C257840   8.651   5.463   6.729
   51ETHO   H2157841   8.589   5.546   6.688
   51ETHO   H2357842   8.731   5.436   6.658
   52ETHO    O157843   8.703   5.497   6.854
   52ETHO    C157844   8.613   5.590   6.922
   52ETHO   H1157845   8.602   5.678   6.855
   52ETHO   H1357846   8.516   5.536   6.930
   52ETHO    C257847   8.650   5.636   7.069
   52ETHO   H2157848   8.656   5.543   7.129
   52ETHO   H2357849   8.577   5.710   7.108
   53ETHO    O157850   8.772   5.707   7.086
   53ETHO    C157851   8.878   5.641   7.041
   53ETHO   H1157852   8.881   5.539   7.084
   53ETHO   H1357853   8.883   5.634   6.930
   53ETHO    C257854   9.005   5.708   7.086
   53ETHO   H2157855   8.997   5.705   7.197
   53ETHO   H2357856   9.006   5.812   7.047
   54ETHO    O157857   9.119   5.633   7.045
   54ETHO    C157858   9.237   5.707   7.057
   54ETHO   H1157859   9.221   5.798   6.997
   54ETHO   H1357860   9.253   5.734   7.164
   54ETHO    C257861   9.344   5.609   7.003
   54ETHO   H2157862   9.318   5.505   7.034
   54ETHO   H2357863   9.441   5.633   7.052
   55ETHO    O157864   9.364   5.632   6.864
   55ETHO    C157865   9.475   5.551   6.828
   55ETHO   H1157866   9.507   5.590   6.729
   55ETHO   H1357867   9.563   5.577   6.892
   55ETHO    C257868   9.442   5.399   6.829
   55ETHO   H2157869   9.342   5.387   6.783
   55ETHO   H2357870   9.518   5.348   6.766
   56ETHO    O157871   9.456   5.338   6.962
   56ETHO    C157872   9.373   5.228   6.952
   56ETHO   H1157873   9.424   5.152   6.889
   56ETHO   H1357874   9.273   5.249   6.908
   56ETHO    C257875   9.336   5.176   7.098
   56ETHO   H2157876   9.269   5.254   7.140
   56ETHO   H2357877   9.433   5.181   7.153
   57ETHO    O157878   9.283   5.047   7.100
   57ETHO    C157879   9.149   5.051   7.082
   57ETHO   H1157880   9.089   5.127   7.137
   57ETHO   H1357881   9.117   5.062   6.976
   57ETHO    C257882   9.105   4.911   7.122
   57ETHO   H2157883   8.997   4.903   7.095
   57ETHO   H2357884   9.120   4.913   7.232
   58ETHO    O157885   9.164   4.799   7.057
   58ETHO    C157886   9.093   4.681   7.089
   58ETHO   H1157887   8.988   4.680   7.050
   58ETHO   H1357888   9.076   4.679   7.198
   58ETHO    C257889   9.175   4.561   7.040
   58ETHO   H2157890   9.146   4.469   7.093
   58ETHO   H2357891   9.282   4.583   7.063
   59ETHO    O157892   9.161   4.550   6.899
   59ETHO    C157893   9.241   4.442   6.854
   59ETHO   H1157894   9.344   4.482   6.853
   59ETHO   H1357895   9.226   4.369   6.937
   59ETHO    C257896   9.204   4.400   6.708
   59ETHO   H2157897   9.094   4.398   6.702
   59ETHO   H2357898   9.251   4.301   6.689
   60ETHO    O157899   9.256   4.491   6.611
   60ETHO    C157900   9.239   4.446   6.471
   60ETHO   H1157901   9.136   4.406   6.456
   60ETHO   H1357902   9.318   4.374   6.443
   60ETHO    C257903   9.259   4.561   6.372
   60ETHO   H2157904   9.283   4.513   6.275
   60ETHO   H2357905   9.351   4.619   6.393
   61ETHO    O157906   9.156   4.653   6.351
   61ETHO    C157907   9.178   4.738   6.243
   61ETHO   H1157908   9.272   4.798   6.244
   61ETHO   H1357909   9.176   4.684   6.146
   61ETHO    C257910   9.068   4.846   6.247
   61ETHO   H2157911   9.085   4.919   6.165
   61ETHO   H2357912   9.082   4.900   6.343
   62ETHO    O157913   8.947   4.777   6.238
   62ETHO    C157914   8.845   4.849   6.315
   62ETHO   H1157915   8.828   4.951   6.276
   62ETHO   H1357916   8.879   4.865   6.420
   62ETHO    C257917   8.703   4.779   6.301
   62ETHO   H2157918   8.630   4.829   6.368
   62ETHO   H2357919   8.701   4.670   6.324
   63ETHO    O157920   8.656   4.793   6.169
   63ETHO    C157921   8.514   4.781   6.156
   63ETHO   H1157922   8.468   4.722   6.239
   63ETHO   H1357923   8.470   4.883   6.153
   63ETHO    C257924   8.464   4.712   6.027
   63ETHO   H2157925   8.516   4.763   5.942
   63ETHO   H2357926   8.353   4.716   6.021
   64ETHO    O157927   8.519   4.582   6.030
   64ETHO    C157928   8.441   4.487   5.956
   64ETHO   H1157929   8.346   4.490   6.012
   64ETHO   H1357930   8.486   4.385   5.958
   64ETHO    C257931   8.428   4.506   5.798
   64ETHO   H2157932   8.395   4.608   5.771
   64ETHO   H2357933   8.339   4.445   5.773
   65ETHO    O157934   8.536   4.461   5.725
   65ETHO    C157935   8.600   4.568   5.659
   65ETHO   H1157936   8.599   4.669   5.705
   65ETHO   H1357937   8.705   4.538   5.641
   65ETHO    C257938   8.532   4.574   5.519
   65ETHO   H2157939   8.570   4.671   5.480
   65ETHO   H2357940   8.423   4.584   5.536
   66ETHO    O157941   8.542   4.463   5.429
   66ETHO    C157942   8.516   4.488   5.294
   66ETHO   H1157943   8.419   4.541   5.285
   66ETHO   H1357944   8.503   4.390   5.244
   66ETHO    C257945   8.615   4.563   5.202
   66ETHO   H2157946   8.568   4.578   5.103
   66ETHO   H2357947   8.699   4.491   5.196
   67ETHO    O157948   8.636   4.694   5.252
   67ETHO    C157949   8.763   4.744   5.221
   67ETHO   H1157950   8.851   4.678   5.205
   67ETHO   H1357951   8.754   4.821   5.141
   67ETHO    C257952   8.812   4.837   5.334
   67ETHO   H2157953   8.741   4.923   5.341
   67ETHO   H2357954   8.907   4.889   5.311
   68ETHO    O157955   8.833   4.768   5.456
   68ETHO    C157956   8.826   4.863   5.559
   68ETHO   H1157957   8.887   4.950   5.529
   68ETHO   H1357958   8.718   4.889   5.571
   68ETHO    C257959   8.874   4.800   5.691
   68ETHO   H2157960   8.826   4.700   5.700
   68ETHO   H2357961   8.846   4.868   5.775
   69ETHO    O157962   9.017   4.794   5.701
   69ETHO    C157963   9.059   4.789   5.834
   69ETHO   H1157964   9.020   4.879   5.887
   69ETHO   H1357965   9.010   4.707   5.890
   69ETHO    C257966   9.209   4.776   5.845
   69ETHO   H2157967   9.245   4.720   5.756
   69ETHO   H2357968   9.239   4.716   5.933
   70ETHO    O157969   9.272   4.904   5.836
   70ETHO    C157970   9.326   4.941   5.967
   70ETHO   H1157971   9.237   4.979   6.022
   70ETHO   H1357972   9.359   4.852   6.025
   70ETHO    C257973   9.441   5.043   5.974
   70ETHO   H2157974   9.506   5.001   5.894
   70ETHO   H2357975   9.485   5.047   6.076
   71ETHO    O157976   9.414   5.178   5.936
   71ETHO    C157977   9.359   5.254   6.045
   71ETHO   H1157978   9.437   5.278   6.119
   71ETHO   H1357979   9.271   5.204   6.092
   71ETHO    C257980   9.301   5.386   5.990
   71ETHO   H2157981   9.262   5.453   6.069
   71ETHO   H2357982   9.216   5.354   5.925
   72ETHO    O157983   9.400   5.449   5.912
   72ETHO    C157984   9.433   5.582   5.949
   72ETHO   H1157985   9.510   5.615   5.877
   72ETHO   H1357986   9.343   5.646   5.934
   72ETHO    C257987   9.478   5.610   6.097
   72ETHO   H2157988   9.545   5.698   6.084
   72ETHO   H2357989   9.544   5.527   6.132
   73ETHO    O157990   9.363   5.637   6.188
   73ETHO    C157991   9.407   5.615   6.322
   73ETHO   H1157992   9.501   5.673   6.333
   73ETHO   H1357993   9.419   5.506   6.339
   73ETHO    C257994   9.299   5.664   6.416
   73ETHO   H2157995   9.346   5.643   6.515
   73ETHO   H2357996   9.206   5.604   6.404
   74ETHO    O157997   9.281   5.808   6.415
   74ETHO    C157998   9.195   5.849   6.307
   74ETHO   H1157999   9.249   5.860   6.211
   74ETHO   H1358000   9.115   5.772   6.309
   74ETHO    C258001   9.113   5.980   6.327
   74ETHO   H2158002   9.067   5.968   6.427
   74ETHO   H2358003   9.040   5.999   6.245
   75ETHO    O158004   9.197   6.092   6.331
   75ETHO    C158005   9.127   6.210   6.304
   75ETHO   H1158006   9.183   6.285   6.365
   75ETHO   H1358007   9.024   6.208   6.347
   75ETHO    C258008   9.111   6.244   6.157
   75ETHO   H2158009   9.017   6.298   6.132
   75ETHO   H2358010   9.112   6.154   6.092
   76ETHO    O158011   9.215   6.328   6.102
   76ETHO    C158012   9.345   6.284   6.137
   76ETHO   H1158013   9.352   6.298   6.247
   76ETHO   H1358014   9.353   6.174   6.119
   76ETHO    C258015   9.464   6.346   6.059
   76ETHO   H2158016   9.438   6.345   5.951
   76ETHO   H2358017   9.560   6.291   6.066
   77ETHO    O158018   9.477   6.473   6.117
   77ETHO    C158019   9.590   6.548   6.070
   77ETHO   H1158020   9.685   6.499   6.102
   77ETHO   H1358021   9.604   6.648   6.116
   77ETHO    C258022   9.599   6.570   5.918
   77ETHO   H2158023   9.662   6.660   5.902
   77ETHO   H2358024   9.492   6.579   5.888
   78ETHO    O158025   9.660   6.451   5.866
   78ETHO    C158026   9.675   6.474   5.724
   78ETHO   H1158027   9.574   6.507   5.694
   78ETHO   H1358028   9.748   6.555   5.705
   78ETHO    C258029   9.732   6.357   5.652
   78ETHO   H2158030   9.740   6.385   5.545
   78ETHO   H2358031   9.648   6.284   5.657
   79ETHO    O158032   9.850   6.301   5.709
   79ETHO    C158033   9.924   6.229   5.617
   79ETHO   H1158034   9.861   6.155   5.563
   79ETHO   H1358035   9.961   6.292   5.533
   79ETHO    C258036  10.035   6.149   5.686
   79ETHO   H2158037  10.085   6.208   5.766
   79ETHO   H2358038  10.113   6.111   5.616
   80ETHO    O158039   9.979   6.038   5.755
   80ETHO    C158040  10.078   5.960   5.812
   80ETHO   H1158041  10.149   5.917   5.739
   80ETHO   H1358042  10.131   6.026   5.884
   80ETHO    C258043  10.014   5.837   5.889
   80ETHO   H2158044  10.103   5.770   5.900
   80ETHO   H2358045   9.944   5.773   5.831
   81ETHO    O158046   9.969   5.878   6.014
   81ETHO    C158047   9.927   5.769   6.097
   81ETHO   H1158048   9.819   5.750   6.079
   81ETHO   H1358049   9.993   5.682   6.073
   81ETHO    C258050   9.932   5.805   6.244
   81ETHO   H2158051   9.918   5.715   6.308
   81ETHO   H2358052  10.031   5.852   6.262
   82ETHO    O158053   9.839   5.907   6.277
   82ETHO    C158054   9.713   5.860   6.306
   82ETHO   H1158055   9.721   5.765   6.363
   82ETHO   H1358056   9.669   5.843   6.205
   82ETHO    C258057   9.620   5.948   6.393
   82ETHO   H2158058   9.513   5.929   6.370
   82ETHO   H2358059   9.643   6.053   6.363
   83ETHO    O158060   9.645   5.948   6.533
   83ETHO    C158061   9.555   5.878   6.608
   83ETHO   H1158062   9.526   5.787   6.551
   83ETHO   H1358063   9.595   5.841   6.705
   83ETHO    C258064   9.429   5.959   6.632
   83ETHO   H2158065   9.354   5.885   6.668
   83ETHO   H2358066   9.389   6.003   6.538
   84ETHO    O158067   9.431   6.048   6.734
   84ETHO    C158068   9.521   6.151   6.701
   84ETHO   H1158069   9.493   6.207   6.609
   84ETHO   H1358070   9.627   6.122   6.693
   84ETHO    C258071   9.507   6.253   6.820
   84ETHO   H2158072   9.398   6.274   6.828
   84ETHO   H2358073   9.560   6.349   6.800
   85ETHO    O158074   9.552   6.188   6.940
   85ETHO    C158075   9.547   6.278   7.050
   85ETHO   H1158076   9.625   6.355   7.035
   85ETHO   H1358077   9.440   6.309   7.059
   85ETHO    C258078   9.582   6.212   7.188
   85ETHO   H2158079   9.533   6.113   7.200
   85ETHO   H2358080   9.554   6.287   7.265
   86ETHO    O158081   9.724   6.198   7.194
   86ETHO    C158082   9.779   6.132   7.311
   86ETHO   H1158083   9.888   6.152   7.304
   86ETHO   H1358084   9.746   6.026   7.314
   86ETHO    C258085   9.728   6.189   7.452
   86ETHO   H2158086   9.773   6.117   7.523
   86ETHO   H2358087   9.620   6.163   7.460
   87ETHO    O158088   9.749   6.329   7.473
   87ETHO    C158089   9.703   6.373   7.604
   87ETHO   H1158090   9.592   6.374   7.602
   87ETHO   H1358091   9.723   6.294   7.679
   87ETHO    C258092   9.771   6.502   7.657
   87ETHO   H2158093   9.681   6.548   7.705
   87ETHO   H2358094   9.812   6.566   7.576
   88ETHO    O158095   9.877   6.477   7.744
   88ETHO    C158096   9.952   6.596   7.778
   88ETHO   H1158097   9.888   6.671   7.830
   88ETHO   H1358098   9.987   6.645   7.684
   88ETHO    C258099  10.076   6.554   7.861
   88ETHO   H2158100  10.159   6.618   7.824
   88ETHO   H2358101  10.102   6.448   7.845
   89ETHO    O158102  10.062   6.576   8.006
   89ETHO    C158103  10.192   6.560   8.069
   89ETHO   H1158104  10.216   6.455   8.043
   89ETHO   H1358105  10.264   6.630   8.023
   89ETHO    C258106  10.202   6.571   8.220
   89ETHO   H2158107  10.306   6.555   8.258
   89ETHO   H2358108  10.140   6.495   8.273
   90ETHO    O158109  10.169   6.706   8.253
   90ETHO    C158110  10.032   6.724   8.286
   90ETHO   H1158111   9.959   6.716   8.203
   90ETHO   H1358112  10.009   6.650   8.366
   90ETHO    C258113  10.017   6.868   8.352
   90ETHO   H2158114   9.910   6.895   8.357
   90ETHO   H2358115  10.051   6.943   8.277
   91ETHO    O158116  10.091   6.877   8.474
   91ETHO    C158117  10.021   6.846   8.588
   91ETHO   H1158118   9.939   6.919   8.600
   91ETHO   H1358119   9.964   6.752   8.574
   91ETHO    C258120  10.099   6.847   8.723
   91ETHO   H2158121  10.181   6.772   8.716
   91ETHO   H2358122  10.035   6.816   8.808
   92ETHO    O158123  10.147   6.983   8.731
   92ETHO    C158124  10.165   7.023   8.865
   92ETHO   H1158125  10.089   6.991   8.940
   92ETHO   H1358126  10.259   6.974   8.899
   92ETHO    C258127  10.188   7.173   8.891
   92ETHO   H2158128  10.265   7.212   8.821
   92ETHO   H2358129  10.221   7.195   8.995
   93ETHO    O158130  10.064   7.236   8.876
   93ETHO    C158131  10.056   7.374   8.912
   93ETHO   H1158132   9.969   7.423   8.864
   93ETHO   H1358133  10.152   7.420   8.881
   93ETHO    C258134  10.030   7.383   9.068
   93ETHO   H2158135  10.119   7.351   9.127
   93ETHO   H2358136   9.953   7.305   9.084
   94ETHO    O158137   9.986   7.512   9.113
   94ETHO    C158138  10.078   7.572   9.194
   94ETHO   H1158139  10.023   7.645   9.256
   94ETHO   H1358140  10.133   7.499   9.257
   94ETHO    C258141  10.195   7.657   9.128
   94ETHO   H2158142  10.159   7.743   9.068
   94ETHO   H2358143  10.251   7.583   9.066
   95ETHO    O158144  10.264   7.702   9.246
   95ETHO    C158145  10.368   7.795   9.226
   95ETHO   H1158146  10.350   7.866   9.142
   95ETHO   H1358147  10.460   7.740   9.196
   95ETHO    C258148  10.397   7.873   9.358
   95ETHO   H2158149  10.505   7.900   9.358
   95ETHO   H2358150  10.384   7.824   9.456
   96ETHO    O158151  10.326   7.999   9.366
   96ETHO    C158152  10.353   8.066   9.491
   96ETHO   H1158153  10.293   8.021   9.574
   96ETHO   H1358154  10.461   8.057   9.513
   96ETHO    C258155  10.314   8.219   9.495
   96ETHO   H2158156  10.285   8.231   9.602
   96ETHO   H2358157  10.224   8.234   9.433
   97ETHO    O158158  10.418   8.309   9.469
   97ETHO    C158159  10.425   8.351   9.336
   97ETHO   H1158160  10.329   8.400   9.311
   97ETHO   H1358161  10.438   8.258   9.275
   97ETHO    C258162  10.540   8.444   9.313
   97ETHO   H2158163  10.544   8.472   9.206
   97ETHO   H2358164  10.636   8.394   9.338
   98ETHO    O158165  10.517   8.556   9.397
   98ETHO    C158166  10.618   8.654   9.374
   98ETHO   H1158167  10.712   8.616   9.421
   98ETHO   H1358168  10.644   8.670   9.267
   98ETHO    C258169  10.565   8.787   9.445
   98ETHO   H2158170  10.541   8.759   9.549
   98ETHO   H2358171  10.473   8.819   9.392
   99ETHO    O158172  10.654   8.896   9.456
   99ETHO    C158173  10.650   8.977   9.341
   99ETHO   H1158174  10.545   9.012   9.328
   99ETHO   H1358175  10.667   8.914   9.251
   99ETHO    C258176  10.741   9.098   9.344
   99ETHO   H2158177  10.727   9.153   9.249
   99ETHO   H2358178  10.844   9.055   9.346
  100ETHO    O158179  10.714   9.177   9.454
  100ETHO    C158180  10.786   9.299   9.447
  100ETHO   H1158181  10.895   9.281   9.448
  100ETHO   H1358182  10.758   9.360   9.358
  100ETHO    C258183  10.750   9.379   9.573
  100ETHO   H2158184  10.641   9.369   9.594
  100ETHO   H2358185  10.774   9.486   9.555
  101PROX    O158186  10.826   9.337   9.681
  101PROX    C158187  10.776   9.394   9.801
  101PROX   H1158188  10.779   9.503   9.781
  101PROX   H1358189  10.674   9.357   9.827
  101PROX    C258190  10.874   9.361   9.912
  101PROX   H2158191  10.980   9.362   9.879
  101PROX    C358192  10.852   9.220   9.973
  101PROX   H3158193  10.760   9.210  10.033
  101PROX   H3258194  10.847   9.145   9.891
  101PROX   H3358195  10.944   9.187  10.027
  102PROX    O158196  10.856   9.463  10.010
  102PROX    C158197  10.938   9.457  10.122
  102PROX   H1158198  10.926   9.362  10.178
  102PROX   H1358199  11.038   9.448  10.075
  102PROX    C258200  10.920   9.571  10.223
  102PROX   H2158201  10.816   9.565  10.262
  102PROX    C358202  10.940   9.703  10.148
  102PROX   H3158203  10.851   9.718  10.083
  102PROX   H3258204  10.948   9.787  10.221
  102PROX   H3358205  11.029   9.710  10.082
  103PROX    O158206  11.014   9.548  10.331
  103PROX    C158207  11.154   9.552  10.295
  103PROX   H1158208  11.165   9.593  10.192
  103PROX   H1358209  11.223   9.612  10.357
  103PROX    C258210  11.211   9.403  10.295
  103PROX   H2158211  11.128   9.336  10.263
  103PROX    C358212  11.238   9.360  10.439
  103PROX   H3158213  11.145   9.369  10.499
  103PROX   H3258214  11.255   9.251  10.450
  103PROX   H3358215  11.316   9.423  10.487
  104PROX    O158216  11.309   9.391  10.192
  104PROX    C158217  11.343   9.251  10.162
  104PROX   H1158218  11.397   9.203  10.246
  104PROX   H1358219  11.248   9.199  10.136
  104PROX    C258220  11.430   9.251  10.034
  104PROX   H2158221  11.358   9.283   9.956
  104PROX    C358222  11.483   9.105   9.999
  104PROX   H3158223  11.520   9.097   9.895
  104PROX   H3258224  11.555   9.065  10.074
  104PROX   H3358225  11.393   9.039   9.997
  105PROX    O158226  11.545   9.334  10.043
  105PROX    C158227  11.615   9.351   9.922
  105PROX   H1158228  11.702   9.284   9.907
  105PROX   H1358229  11.547   9.330   9.837
  105PROX    C258230  11.672   9.491   9.909
  105PROX   H2158231  11.764   9.495   9.972
  105PROX    C358232  11.578   9.602   9.970
  105PROX   H3158233  11.618   9.704   9.952
  105PROX   H3258234  11.475   9.586   9.932
  105PROX   H3358235  11.567   9.583  10.079
  106PROX    O158236  11.706   9.518   9.768
  106PROX    C158237  11.834   9.583   9.754
  106PROX   H1158238  11.822   9.683   9.800
  106PROX   H1358239  11.913   9.523   9.804
  106PROX    C258240  11.875   9.579   9.607
  106PROX   H2158241  11.794   9.621   9.543
  106PROX    C358242  11.892   9.434   9.555
  106PROX   H3158243  11.931   9.445   9.452
  106PROX   H3258244  11.975   9.385   9.610
  106PROX   H3358245  11.798   9.375   9.558
  107PROX    O158246  11.999   9.656   9.587
  107PROX    C158247  12.117   9.622   9.662
  107PROX   H1158248  12.109   9.527   9.719
  107PROX   H1358249  12.192   9.598   9.584
  107PROX    C258250  12.166   9.744   9.751
  107PROX   H2158251  12.170   9.835   9.687
  107PROX    C358252  12.312   9.732   9.777
  107PROX   H3158253  12.333   9.634   9.825
  107PROX   H3258254  12.377   9.753   9.689
  107PROX   H3358255  12.348   9.815   9.842
  108PROX    O158256  12.081   9.758   9.861
  108PROX    C158257  12.111   9.672   9.971
  108PROX   H1158258  12.115   9.570   9.928
  108PROX   H1358259  12.203   9.696  10.029
  108PROX    C258260  11.996   9.682  10.070
  108PROX   H2158261  11.902   9.646  10.022
  108PROX    C358262  11.961   9.820  10.125
  108PROX   H3158263  11.912   9.884  10.048
  108PROX   H3258264  11.896   9.813  10.214
  108PROX   H3358265  12.056   9.863  10.161
  109PROX    O158266  12.026   9.596  10.175
  109PROX    C158267  11.912   9.555  10.244
  109PROX   H1158268  11.889   9.625  10.327
  109PROX   H1358269  11.821   9.563  10.181
  109PROX    C258270  11.927   9.410  10.291
  109PROX   H2158271  12.019   9.398  10.352
  109PROX    C358272  11.929   9.310  10.174
  109PROX   H3158273  11.982   9.228  10.227
  109PROX   H3258274  11.829   9.289  10.130
  109PROX   H3358275  11.995   9.351  10.095
  110PROX    O158276  11.811   9.388  10.368
  110PROX    C158277  11.840   9.315  10.489
  110PROX   H1158278  11.885   9.219  10.456
  110PROX   H1358279  11.911   9.368  10.557
  110PROX    C258280  11.707   9.300  10.563
  110PROX   H2158281  11.733   9.257  10.662
  110PROX    C358282  11.611   9.198  10.494
  110PROX   H3158283  11.585   9.233  10.392
  110PROX   H3258284  11.653   9.096  10.479
  110PROX   H3358285  11.518   9.183  10.552
  111PROX    O158286  11.661   9.433  10.582
  111PROX    C158287  11.560   9.453  10.681
  111PROX   H1158288  11.465   9.415  10.636
  111PROX   H1358289  11.580   9.386  10.767
  111PROX    C258290  11.559   9.600  10.730
  111PROX   H2158291  11.662   9.627  10.761
  111PROX    C358292  11.469   9.609  10.858
  111PROX   H3158293  11.368   9.565  10.842
  111PROX   H3258294  11.510   9.558  10.948
  111PROX   H3358295  11.460   9.713  10.894
  112PROX    O158296  11.507   9.682  10.623
  112PROX    C158297  11.591   9.705  10.506
  112PROX   H1158298  11.698   9.721  10.532
  112PROX   H1358299  11.587   9.616  10.439
  112PROX    C258300  11.556   9.830  10.431
  112PROX   H2158301  11.453   9.804  10.398
  112PROX    C358302  11.637   9.859  10.309
  112PROX   H3158303  11.648   9.773  10.240
  112PROX   H3258304  11.591   9.941  10.250
  112PROX   H3358305  11.738   9.892  10.340
  113PROX    O158306  11.541   9.943  10.520
  113PROX    C158307  11.657   9.976  10.589
  113PROX   H1158308  11.689   9.884  10.643
  113PROX   H1358309  11.736  10.007  10.517
  113PROX    C258310  11.627  10.090  10.684
  113PROX   H2158311  11.517  10.096  10.700
  113PROX    C358312  11.680  10.225  10.623
  113PROX   H3158313  11.790  10.220  10.608
  113PROX   H3258314  11.629  10.233  10.525
  113PROX   H3358315  11.647  10.305  10.693
  114PROX    O158316  11.698  10.082  10.805
  114PROX    C158317  11.635   9.988  10.896
  114PROX   H1158318  11.544  10.038  10.936
  114PROX   H1358319  11.599   9.893  10.853
  114PROX    C258320  11.732   9.946  11.009
  114PROX   H2158321  11.786  10.036  11.046
  114PROX    C358322  11.842   9.842  10.974
  114PROX   H3158323  11.791   9.744  10.963
  114PROX   H3258324  11.883   9.871  10.875
  114PROX   H3358325  11.921   9.824  11.050
  115PROX    O158326  11.661   9.884  11.116
  115PROX    C158327  11.727   9.888  11.240
  115PROX   H1158328  11.837   9.892  11.227
  115PROX   H1358329  11.702   9.985  11.288
  115PROX    C258330  11.687   9.781  11.340
  115PROX   H2158331  11.577   9.789  11.334
  115PROX    C358332  11.739   9.799  11.485
  115PROX   H3158333  11.830   9.743  11.516
  115PROX   H3258334  11.759   9.905  11.512
  115PROX   H3358335  11.653   9.760  11.543
  116PROX    O158336  11.738   9.657  11.290
  116PROX    C158337  11.676   9.542  11.348
  116PROX   H1158338  11.732   9.524  11.442
  116PROX   H1358339  11.582   9.589  11.382
  116PROX    C258340  11.642   9.430  11.255
  116PROX   H2158341  11.591   9.480  11.171
  116PROX    C358342  11.543   9.325  11.314
  116PROX   H3158343  11.530   9.247  11.235
  116PROX   H3258344  11.574   9.279  11.410
  116PROX   H3358345  11.445   9.368  11.341
  117PROX    O158346  11.759   9.357  11.216
  117PROX    C158347  11.835   9.416  11.112
  117PROX   H1158348  11.827   9.525  11.128
  117PROX   H1358349  11.942   9.389  11.128
  117PROX    C258350  11.790   9.361  10.973
  117PROX   H2158351  11.715   9.426  10.924
  117PROX    C358352  11.758   9.209  10.959
  117PROX   H3158353  11.743   9.160  10.861
  117PROX   H3258354  11.840   9.149  11.004
  117PROX   H3358355  11.662   9.188  11.012
  118PROX    O158356  11.905   9.366  10.883
  118PROX    C158357  11.937   9.498  10.830
  118PROX   H1158358  11.864   9.509  10.748
  118PROX   H1358359  11.920   9.575  10.909
  118PROX    C258360  12.089   9.502  10.795
  118PROX   H2158361  12.105   9.413  10.732
  118PROX    C358362  12.175   9.488  10.918
  118PROX   H3158363  12.150   9.392  10.966
  118PROX   H3258364  12.280   9.492  10.883
  118PROX   H3358365  12.157   9.565  10.997
  119PROX    O158366  12.110   9.624  10.724
  119PROX    C158367  12.068   9.629  10.589
  119PROX   H1158368  12.122   9.547  10.537
  119PROX   H1358369  11.958   9.629  10.578
  119PROX    C258370  12.120   9.759  10.539
  119PROX   H2158371  12.090   9.756  10.431
  119PROX    C358372  12.276   9.787  10.544
  119PROX   H3158373  12.323   9.857  10.472
  119PROX   H3258374  12.305   9.821  10.646
  119PROX   H3358375  12.333   9.696  10.516
  120PROX    O158376  12.043   9.865  10.598
  120PROX    C158377  12.070   9.990  10.540
  120PROX   H1158378  12.130   9.988  10.446
  120PROX   H1358379  11.977  10.038  10.505
  120PROX    C258380  12.137  10.093  10.635
  120PROX   H2158381  12.238  10.057  10.668
  120PROX    C358382  12.044  10.107  10.758
  120PROX   H3158383  11.939  10.093  10.725
  120PROX   H3258384  12.061  10.036  10.842
  120PROX   H3358385  12.061  10.207  10.803
  121PROX    O158386  12.146  10.223  10.569
  121PROX    C158387  12.267  10.233  10.490
  121PROX   H1158388  12.273  10.145  10.422
  121PROX   H1358389  12.259  10.321  10.422
  121PROX    C258390  12.392  10.259  10.569
  121PROX   H2158391  12.407  10.181  10.646
  121PROX    C358392  12.393  10.395  10.635
  121PROX   H3158393  12.492  10.413  10.682
  121PROX   H3258394  12.388  10.473  10.556
  121PROX   H3358395  12.309  10.407  10.707
  122PROX    O158396  12.494  10.266  10.472
  122PROX    C158397  12.601  10.179  10.505
  122PROX   H1158398  12.697  10.219  10.467
  122PROX   H1358399  12.628  10.173  10.613
  122PROX    C258400  12.580  10.037  10.454
  122PROX   H2158401  12.480  10.006  10.493
  122PROX    C358402  12.693   9.941  10.499
  122PROX   H3158403  12.690   9.942  10.610
  122PROX   H3258404  12.677   9.837  10.463
  122PROX   H3358405  12.793   9.976  10.463
  123PROX    O158406  12.575  10.042  10.315
  123PROX    C158407  12.508   9.925  10.262
  123PROX   H1158408  12.498   9.846  10.338
  123PROX   H1358409  12.399   9.932  10.242
  123PROX    C258410  12.579   9.872  10.134
  123PROX   H2158411  12.677   9.836  10.170
  123PROX    C358412  12.598   9.977  10.027
  123PROX   H3158413  12.667  10.052  10.072
  123PROX   H3258414  12.631   9.942   9.927
  123PROX   H3358415  12.501  10.026  10.002
  124PROX    O158416  12.500   9.764  10.082
  124PROX    C158417  12.572   9.672   9.991
  124PROX   H1158418  12.511   9.606   9.926
  124PROX   H1358419  12.627   9.730   9.913
  124PROX    C258420  12.654   9.580  10.077
  124PROX   H2158421  12.694   9.629  10.168
  124PROX    C358422  12.775   9.515  10.007
  124PROX   H3158423  12.740   9.443   9.930
  124PROX   H3258424  12.854   9.580   9.964
  124PROX   H3358425  12.835   9.456  10.080
  125PROX    O158426  12.573   9.476  10.129
  125PROX    C158427  12.485   9.524  10.234
  125PROX   H1158428  12.518   9.599  10.308
  125PROX   H1358429  12.395   9.573  10.190
  125PROX    C258430  12.429   9.403  10.316
  125PROX   H2158431  12.513   9.332  10.335
  125PROX    C358432  12.318   9.338  10.225
  125PROX   H3158433  12.236   9.406  10.192
  125PROX   H3258434  12.368   9.305  10.132
  125PROX   H3358435  12.274   9.253  10.282
  126PROX    O158436  12.378   9.458  10.438
  126PROX    C158437  12.329   9.358  10.530
  126PROX   H1158438  12.304   9.416  10.621
  126PROX   H1358439  12.232   9.309  10.507
  126PROX    C258440  12.431   9.246  10.569
  126PROX   H2158441  12.410   9.172  10.489
  126PROX    C358442  12.418   9.161  10.693
  126PROX   H3158443  12.318   9.114  10.704
  126PROX   H3258444  12.503   9.091  10.707
  126PROX   H3358445  12.412   9.227  10.783
  127PROX    O158446  12.567   9.294  10.564
  127PROX    C158447  12.605   9.387  10.665
  127PROX   H1158448  12.517   9.407  10.730
  127PROX   H1358449  12.693   9.342  10.716
  127PROX    C258450  12.654   9.517  10.594
  127PROX   H2158451  12.569   9.577  10.555
  127PROX    C358452  12.761   9.491  10.492
  127PROX   H3158453  12.821   9.408  10.535
  127PROX   H3258454  12.719   9.455  10.395
  127PROX   H3358455  12.828   9.577  10.469
  128PROX    O158456  12.705   9.603  10.689
  128PROX    C158457  12.609   9.651  10.791
  128PROX   H1158458  12.519   9.692  10.742
  128PROX   H1358459  12.580   9.564  10.855
  128PROX    C258460  12.683   9.758  10.871
  128PROX   H2158461  12.726   9.832  10.801
  128PROX    C358462  12.797   9.706  10.956
  128PROX   H3158463  12.874   9.658  10.892
  128PROX   H3258464  12.849   9.790  11.006
  128PROX   H3358465  12.757   9.639  11.036
  129PROX    O158466  12.585   9.823  10.956
  129PROX    C158467  12.518   9.929  10.893
  129PROX   H1158468  12.593  10.009  10.876
  129PROX   H1358469  12.476   9.894  10.796
  129PROX    C258470  12.406   9.974  10.984
  129PROX   H2158471  12.446   9.973  11.088
  129PROX    C358472  12.298   9.864  10.976
  129PROX   H3158473  12.214   9.887  11.045
  129PROX   H3258474  12.258   9.869  10.873
  129PROX   H3358475  12.337   9.763  11.002
  130PROX    O158476  12.366  10.101  10.954
  130PROX    C158477  12.273  10.150  11.046
  130PROX   H1158478  12.178  10.093  11.045
  130PROX   H1358479  12.306  10.152  11.152
  130PROX    C258480  12.237  10.301  11.007
  130PROX   H2158481  12.212  10.288  10.899
  130PROX    C358482  12.362  10.395  11.020
  130PROX   H3158483  12.454  10.344  10.985
  130PROX   H3258484  12.347  10.482  10.953
  130PROX   H3358485  12.369  10.425  11.127
  131PROX    O158486  12.123  10.340  11.086
  131PROX    C158487  12.050  10.431  11.007
  131PROX   H1158488  12.117  10.518  10.994
  131PROX   H1358489  12.032  10.387  10.907
  131PROX    C258490  11.920  10.457  11.083
  131PROX   H2158491  11.957  10.488  11.184
  131PROX    C358492  11.829  10.334  11.108
  131PROX   H3158493  11.743  10.368  11.169
  131PROX   H3258494  11.787  10.297  11.013
  131PROX   H3358495  11.869  10.240  11.154
  132PROX    O158496  11.855  10.566  11.027
  132PROX    C158497  11.813  10.559  10.893
  132PROX   H1158498  11.905  10.572  10.831
  132PROX   H1358499  11.776  10.456  10.870
  132PROX    C258500  11.695  10.656  10.864
  132PROX   H2158501  11.729  10.756  10.901
  132PROX    C358502  11.563  10.630  10.924
  132PROX   H3158503  11.487  10.711  10.918
  132PROX   H3258504  11.516  10.537  10.885
  132PROX   H3358505  11.564  10.623  11.035
  133PROX    O158506  11.685  10.668  10.718
  133PROX    C158507  11.629  10.795  10.675
  133PROX   H1158508  11.523  10.813  10.704
  133PROX   H1358509  11.692  10.879  10.710
  133PROX    C258510  11.640  10.793  10.525
  133PROX   H2158511  11.576  10.712  10.483
  133PROX    C358512  11.778  10.775  10.473
  133PROX   H3158513  11.812  10.675  10.506
  133PROX   H3258514  11.775  10.766  10.362
  133PROX   H3358515  11.851  10.851  10.509
  134PROX    O158516  11.578  10.908  10.475
  134PROX    C158517  11.558  10.906  10.331
  134PROX   H1158518  11.652  10.904  10.273
  134PROX   H1358519  11.494  10.822  10.298
  134PROX    C258520  11.485  11.035  10.287
  134PROX   H2158521  11.559  11.117  10.271
  134PROX    C358522  11.367  11.075  10.383
  134PROX   H3158523  11.295  10.991  10.384
  134PROX   H3258524  11.398  11.098  10.487
  134PROX   H3358525  11.316  11.167  10.347
  135PROX    O158526  11.415  11.010  10.165
  135PROX    C158527  11.494  10.993  10.045
  135PROX   H1158528  11.442  11.045   9.961
  135PROX   H1358529  11.590  11.048  10.056
  135PROX    C258530  11.515  10.841  10.002
  135PROX   H2158531  11.529  10.844   9.892
  135PROX    C358532  11.391  10.754  10.028
  135PROX   H3158533  11.405  10.644  10.016
  135PROX   H3258534  11.347  10.778  10.127
  135PROX   H3358535  11.312  10.773   9.952
  136PROX    O158536  11.638  10.793  10.071
  136PROX    C158537  11.672  10.660  10.034
  136PROX   H1158538  11.595  10.591  10.075
  136PROX   H1358539  11.676  10.652   9.923
  136PROX    C258540  11.812  10.640  10.092
  136PROX   H2158541  11.809  10.670  10.199
  136PROX    C358542  11.908  10.725  10.006
  136PROX   H3158543  12.013  10.704  10.038
  136PROX   H3258544  11.907  10.703   9.897
  136PROX   H3358545  11.889  10.834  10.015
  137PROX    O158546  11.868  10.504  10.086
  137PROX    C158547  11.801  10.410  10.168
  137PROX   H1158548  11.809  10.444  10.273
  137PROX   H1358549  11.698  10.408  10.125
  137PROX    C258550  11.867  10.272  10.155
  137PROX   H2158551  11.858  10.255  10.046
  137PROX    C358552  11.809  10.168  10.247
  137PROX   H3158553  11.854  10.173  10.349
  137PROX   H3258554  11.700  10.182  10.262
  137PROX   H3358555  11.808  10.062  10.212
  138PROX    O158556  12.009  10.285  10.184
  138PROX    C158557  12.087  10.169  10.151
  138PROX   H1158558  12.189  10.183  10.191
  138PROX   H1358559  12.046  10.079  10.202
  138PROX    C258560  12.092  10.145   9.997
  138PROX   H2158561  11.991  10.115   9.962
  138PROX    C358562  12.196  10.037   9.962
  138PROX   H3158563  12.202  10.021   9.852
  138PROX   H3258564  12.300  10.066   9.988
  138PROX   H3358565  12.182   9.939  10.012
  139PROX    O158566  12.140  10.259   9.924
  139PROX    C158567  12.065  10.278   9.806
  139PROX   H1158568  12.054  10.182   9.751
  139PROX   H1358569  11.964  10.317   9.832
  139PROX    C258570  12.136  10.381   9.717
  139PROX   H2158571  12.239  10.344   9.703
  139PROX    C358572  12.124  10.525   9.777
  139PROX   H3158573  12.016  10.554   9.777
  139PROX   H3258574  12.156  10.540   9.883
  139PROX   H3358575  12.194  10.586   9.717
  140PROX    O158576  12.079  10.388   9.591
  140PROX    C158577  12.151  10.310   9.496
  140PROX   H1158578  12.254  10.344   9.474
  140PROX   H1358579  12.166  10.211   9.545
  140PROX    C258580  12.063  10.299   9.373
  140PROX   H2158581  11.956  10.287   9.402
  140PROX    C358582  12.104  10.179   9.287
  140PROX   H3158583  12.119  10.089   9.351
  140PROX   H3258584  12.034  10.159   9.203
  140PROX   H3358585  12.199  10.210   9.239
  141PROX    O158586  12.070  10.411   9.284
  141PROX    C158587  12.071  10.544   9.343
  141PROX   H1158588  11.980  10.555   9.406
  141PROX   H1358589  12.166  10.554   9.401
  141PROX    C258590  12.071  10.639   9.218
  141PROX   H2158591  11.987  10.634   9.146
  141PROX    C358592  12.198  10.612   9.133
  141PROX   H3158593  12.205  10.513   9.085
  141PROX   H3258594  12.200  10.694   9.058
  141PROX   H3358595  12.282  10.621   9.205
  142PROX    O158596  12.079  10.771   9.261
  142PROX    C158597  11.965  10.811   9.336
  142PROX   H1158598  11.958  10.762   9.435
  142PROX   H1358599  11.998  10.915   9.354
  142PROX    C258600  11.835  10.819   9.255
  142PROX   H2158601  11.788  10.722   9.228
  142PROX    C358602  11.867  10.879   9.117
  142PROX   H3158603  11.771  10.886   9.060
  142PROX   H3258604  11.919  10.977   9.122
  142PROX   H3358605  11.933  10.818   9.052
  143PROX    O158606  11.753  10.909   9.331
  143PROX    C158607  11.709  10.851   9.456
  143PROX   H1158608  11.676  10.746   9.442
  143PROX   H1358609  11.790  10.850   9.533
  143PROX    C258610  11.585  10.919   9.523
  143PROX   H2158611  11.517  10.937   9.438
  143PROX    C358612  11.625  11.055   9.585
  143PROX   H3158613  11.697  11.034   9.668
  143PROX   H3258614  11.666  11.122   9.507
  143PROX   H3358615  11.540  11.108   9.633
  144PROX    O158616  11.535  10.834   9.624
  144PROX    C158617  11.400  10.867   9.662
  144PROX   H1158618  11.368  10.873   9.768
  144PROX   H1358619  11.369  10.966   9.622
  144PROX    C258620  11.311  10.757   9.599
  144PROX   H2158621  11.363  10.722   9.507
  144PROX    C358622  11.179  10.824   9.566
  144PROX   H3158623  11.201  10.913   9.502
  144PROX   H3258624  11.116  10.754   9.506
  144PROX   H3358625  11.124  10.874   9.648
  145PROX    O158626  11.297  10.653   9.697
  145PROX    C158627  11.241  10.533   9.645
  145PROX   H1158628  11.160  10.552   9.571
  145PROX   H1358629  11.323  10.496   9.580
  145PROX    C258630  11.200  10.438   9.756
  145PROX   H2158631  11.281  10.444   9.831
  145PROX    C358632  11.201  10.293   9.703
  145PROX   H3158633  11.110  10.278   9.641
  145PROX   H3258634  11.290  10.272   9.639
  145PROX   H3358635  11.191  10.223   9.788
  146PROX    O158636  11.069  10.459   9.813
  146PROX    C158637  11.070  10.568   9.900
  146PROX   H1158638  11.154  10.558   9.972
  146PROX   H1358639  11.080  10.660   9.838
  146PROX    C258640  10.936  10.569   9.967
  146PROX   H2158641  10.856  10.525   9.903
  146PROX    C358642  10.895  10.712  10.009
  146PROX   H3158643  10.967  10.749  10.085
  146PROX   H3258644  10.888  10.783   9.924
  146PROX   H3358645  10.796  10.701  10.058
  147PROX    O158646  10.943  10.491  10.086
  147PROX    C158647  10.932  10.350  10.052
  147PROX   H1158648  10.855  10.322   9.977
  147PROX   H1358649  11.030  10.327  10.004
  147PROX    C258650  10.931  10.264  10.177
  147PROX   H2158651  10.995  10.306  10.258
  147PROX    C358652  10.976  10.124  10.139
  147PROX   H3158653  11.082  10.129  10.103
  147PROX   H3258654  10.958  10.051  10.221
  147PROX   H3358655  10.915  10.081  10.057
  148PROX    O158656  10.803  10.251  10.232
  148PROX    C158657  10.739  10.373  10.268
  148PROX   H1158658  10.805  10.431  10.336
  148PROX   H1358659  10.722  10.441  10.182
  148PROX    C258660  10.600  10.347  10.339
  148PROX   H2158661  10.560  10.245  10.320
  148PROX    C358662  10.495  10.454  10.302
  148PROX   H3158663  10.534  10.556  10.321
  148PROX   H3258664  10.474  10.457  10.193
  148PROX   H3358665  10.402  10.431  10.358
  149PROX    O158666  10.614  10.364  10.477
  149PROX    C158667  10.678  10.255  10.543
  149PROX   H1158668  10.612  10.166  10.551
  149PROX   H1358669  10.766  10.224  10.482
  149PROX    C258670  10.719  10.297  10.693
  149PROX   H2158671  10.629  10.324  10.752
  149PROX    C358672  10.815  10.412  10.700
  149PROX   H3158673  10.779  10.490  10.629
  149PROX   H3258674  10.829  10.458  10.800
  149PROX   H3358675  10.915  10.391  10.657
  150PROX    O158676  10.783  10.182  10.761
  150PROX    C158677  10.836  10.210  10.893
  150PROX   H1158678  10.935  10.260  10.887
  150PROX   H1358679  10.763  10.284  10.932
  150PROX    C258680  10.837  10.075  10.970
  150PROX   H2158681  10.899  10.004  10.911
  150PROX    C358682  10.688  10.020  10.972
  150PROX   H3158683  10.642  10.079  11.054
  150PROX   H3258684  10.657  10.031  10.866
  150PROX   H3358685  10.684   9.916  11.012
  151PROX    O158686  10.877  10.086  11.107
  151PROX    C158687  10.896   9.959  11.168
  151PROX   H1158688  10.800   9.909  11.195
  151PROX   H1358689  10.942   9.891  11.093
  151PROX    C258690  10.999   9.953  11.280
  151PROX   H2158691  10.966  10.006  11.372
  151PROX    C358692  11.129  10.029  11.231
  151PROX   H3158693  11.092  10.132  11.213
  151PROX   H3258694  11.220  10.031  11.294
  151PROX   H3358695  11.166   9.979  11.139
  152PROX    O158696  11.029   9.820  11.312
  152PROX    C158697  10.932   9.752  11.398
  152PROX   H1158698  10.995   9.727  11.486
  152PROX   H1358699  10.850   9.821  11.426
  152PROX    C258700  10.870   9.620  11.346
  152PROX   H2158701  10.794   9.635  11.265
  152PROX    C358702  10.794   9.550  11.461
  152PROX   H3158703  10.733   9.463  11.430
  152PROX   H3258704  10.869   9.502  11.527
  152PROX   H3358705  10.744   9.625  11.525
  153PROX    O158706  10.976   9.530  11.301
  153PROX    C158707  11.025   9.558  11.172
  153PROX   H1158708  10.999   9.661  11.139
  153PROX   H1358709  11.134   9.541  11.168
  153PROX    C258710  10.958   9.458  11.067
  153PROX   H2158711  10.850   9.444  11.088
  153PROX    C358712  11.034   9.325  11.085
  153PROX   H3158713  11.130   9.325  11.030
  153PROX   H3258714  11.056   9.305  11.192
  153PROX   H3358715  10.968   9.239  11.058
  154PROX    O158716  10.981   9.500  10.930
  154PROX    C158717  10.908   9.619  10.895
  154PROX   H1158718  10.808   9.629  10.942
  154PROX   H1358719  10.957   9.712  10.933
  154PROX    C258720  10.913   9.631  10.739
  154PROX   H2158721  10.847   9.556  10.690
  154PROX    C358722  11.056   9.617  10.685
  154PROX   H3158723  11.059   9.578  10.581
  154PROX   H3258724  11.118   9.709  10.691
  154PROX   H3358725  11.122   9.558  10.753
  155PROX    O158726  10.871   9.758  10.702
  155PROX    C158727  10.808   9.764  10.572
  155PROX   H1158728  10.864   9.702  10.499
  155PROX   H1358729  10.701   9.738  10.585
  155PROX    C258730  10.808   9.911  10.504
  155PROX   H2158731  10.770   9.982  10.580
  155PROX    C358732  10.719   9.909  10.374
  155PROX   H3158733  10.675  10.011  10.362
  155PROX   H3258734  10.786   9.878  10.291
  155PROX   H3358735  10.626   9.853  10.398
  156PROX    O158736  10.943   9.944  10.463
  156PROX    C158737  11.022   9.986  10.581
  156PROX   H1158738  10.958  10.050  10.646
  156PROX   H1358739  11.041   9.890  10.632
  156PROX    C258740  11.151  10.063  10.533
  156PROX   H2158741  11.119  10.141  10.460
  156PROX    C358742  11.237   9.957  10.462
  156PROX   H3158743  11.253   9.867  10.524
  156PROX   H3258744  11.182   9.929  10.369
  156PROX   H3358745  11.332  10.007  10.433
  157PROX    O158746  11.231  10.118  10.634
  157PROX    C158747  11.188  10.243  10.683
  157PROX   H1158748  11.176  10.316  10.600
  157PROX   H1358749  11.085  10.236  10.723
  157PROX    C258750  11.281  10.310  10.787
  157PROX   H2158751  11.385  10.326  10.750
  157PROX    C358752  11.293  10.237  10.923
  157PROX   H3158753  11.346  10.307  10.992
  157PROX   H3258754  11.187  10.217  10.945
  157PROX   H3358755  11.340  10.136  10.920
  158PROX    O158756  11.228  10.437  10.830
  158PROX    C158757  11.230  10.535  10.729
  158PROX   H1158758  11.326  10.519  10.676
  158PROX   H1358759  11.142  10.511  10.665
  158PROX    C258760  11.207  10.669  10.788
  158PROX   H2158761  11.310  10.698  10.817
  158PROX    C358762  11.128  10.662  10.919
  158PROX   H3158763  11.207  10.640  10.994
  158PROX   H3258764  11.083  10.761  10.941
  158PROX   H3358765  11.065  10.570  10.924
  159PROX    O158766  11.163  10.764  10.695
  159PROX    C158767  11.248  10.793  10.582
  159PROX   H1158768  11.253  10.902  10.564
  159PROX   H1358769  11.352  10.755  10.593
  159PROX    C258770  11.200  10.726  10.444
  159PROX   H2158771  11.257  10.782  10.367
  159PROX    C358772  11.053  10.736  10.399
  159PROX   H3158773  11.013  10.838  10.416
  159PROX   H3258774  11.046  10.692  10.297
  159PROX   H3358775  10.993  10.674  10.470
  160PROX    O158776  11.238  10.587  10.443
  160PROX    C158777  11.269  10.544  10.311
  160PROX   H1158778  11.180  10.538  10.245
  160PROX   H1358779  11.345  10.613  10.267
  160PROX    C258780  11.327  10.399  10.314
  160PROX   H2158781  11.249  10.336  10.362
  160PROX    C358782  11.452  10.384  10.401
  160PROX   H3158783  11.441  10.426  10.503
  160PROX   H3258784  11.467  10.274  10.411
  160PROX   H3358785  11.539  10.436  10.355
  161PROX    O158786  11.353  10.366  10.184
  161PROX    C158787  11.392  10.230  10.167
  161PROX   H1158788  11.489  10.209  10.217
  161PROX   H1358789  11.300  10.186  10.211
  161PROX    C258790  11.400  10.198  10.019
  161PROX   H2158791  11.322  10.263   9.974
  161PROX    C358792  11.386  10.046   9.992
  161PROX   H3158793  11.309   9.998  10.056
  161PROX   H3258794  11.355  10.025   9.888
  161PROX   H3358795  11.474   9.990  10.031
  162PROX    O158796  11.532  10.241   9.976
  162PROX    C158797  11.526  10.316   9.857
  162PROX   H1158798  11.467  10.273   9.773
  162PROX   H1358799  11.464  10.407   9.869
  162PROX    C258800  11.666  10.348   9.799
  162PROX   H2158801  11.725  10.400   9.877
  162PROX    C358802  11.658  10.452   9.677
  162PROX   H3158803  11.757  10.488   9.642
  162PROX   H3258804  11.599  10.415   9.590
  162PROX   H3358805  11.612  10.543   9.723
  163PROX    O158806  11.735  10.226   9.742
  163PROX    C158807  11.646  10.141   9.665
  163PROX   H1158808  11.558  10.119   9.728
  163PROX   H1358809  11.614  10.184   9.568
  163PROX    C258810  11.715  10.004   9.644
  163PROX   H2158811  11.750   9.968   9.743
  163PROX    C358812  11.841  10.019   9.556
  163PROX   H3158813  11.907  10.094   9.605
  163PROX   H3258814  11.897   9.924   9.540
  163PROX   H3358815  11.809  10.057   9.457
  164PROX    O158816  11.631   9.913   9.576
  164PROX    C158817  11.530   9.850   9.652
  164PROX   H1158818  11.554   9.749   9.690
  164PROX   H1358819  11.523   9.905   9.749
  164PROX    C258820  11.398   9.856   9.580
  164PROX   H2158821  11.418   9.819   9.477
  164PROX    C358822  11.346   9.994   9.555
  164PROX   H3158823  11.265   9.993   9.479
  164PROX   H3258824  11.308  10.041   9.648
  164PROX   H3358825  11.435  10.051   9.519
  165PROX    O158826  11.296   9.787   9.652
  165PROX    C158827  11.317   9.647   9.651
  165PROX   H1158828  11.356   9.617   9.552
  165PROX   H1358829  11.387   9.615   9.731
  165PROX    C258830  11.183   9.576   9.690
  165PROX   H2158831  11.101   9.606   9.621
  165PROX    C358832  11.127   9.610   9.830
  165PROX   H3158833  11.187   9.560   9.909
  165PROX   H3258834  11.113   9.719   9.846
  165PROX   H3358835  11.032   9.552   9.834
  166ETHO    O158836  11.209   9.433   9.699
  166ETHO    C158837  11.235   9.378   9.573
  166ETHO   H1158838  11.242   9.462   9.501
  166ETHO   H1358839  11.142   9.325   9.544
  166ETHO    C258840  11.355   9.281   9.581
  166ETHO   H2158841  11.435   9.323   9.645
  166ETHO   H2358842  11.398   9.275   9.479
  167ETHO    O158843  11.301   9.151   9.615
  167ETHO    C158844  11.389   9.045   9.570
  167ETHO   H1158845  11.443   9.063   9.475
  167ETHO   H1358846  11.465   9.018   9.646
  167ETHO    C258847  11.295   8.919   9.554
  167ETHO   H2158848  11.214   8.927   9.629
  167ETHO   H2358849  11.343   8.824   9.584
  168ETHO    O158850  11.234   8.898   9.422
  168ETHO    C158851  11.167   8.772   9.416
  168ETHO   H1158852  11.100   8.769   9.504
  168ETHO   H1358853  11.240   8.692   9.440
  168ETHO    C258854  11.116   8.756   9.278
  168ETHO   H2158855  11.201   8.770   9.208
  168ETHO   H2358856  11.040   8.834   9.258
  169ETHO    O158857  11.058   8.625   9.271
  169ETHO    C158858  11.026   8.594   9.134
  169ETHO   H1158859  10.923   8.625   9.109
  169ETHO   H1358860  11.091   8.645   9.060
  169ETHO    C258861  11.049   8.440   9.125
  169ETHO   H2158862  11.148   8.412   9.168
  169ETHO   H2358863  11.052   8.412   9.018
  170ETHO    O158864  10.942   8.371   9.192
  170ETHO    C158865  10.943   8.235   9.160
  170ETHO   H1158866  11.010   8.178   9.228
  170ETHO   H1358867  10.982   8.228   9.056
  170ETHO    C258868  10.817   8.162   9.181
  170ETHO   H2158869  10.760   8.190   9.272
  170ETHO   H2358870  10.847   8.055   9.180
  171ETHO    O158871  10.733   8.199   9.077
  171ETHO    C158872  10.620   8.121   9.081
  171ETHO   H1158873  10.653   8.015   9.071
  171ETHO   H1358874  10.569   8.136   9.178
  171ETHO    C258875  10.532   8.162   8.962
  171ETHO   H2158876  10.531   8.270   8.938
  171ETHO   H2358877  10.430   8.116   8.965
  172ETHO    O158878  10.586   8.113   8.847
  172ETHO    C158879  10.520   8.152   8.729
  172ETHO   H1158880  10.549   8.256   8.703
  172ETHO   H1358881  10.411   8.141   8.749
  172ETHO    C258882  10.559   8.072   8.596
  172ETHO   H2158883  10.668   8.060   8.576
  172ETHO   H2358884  10.525   8.134   8.511
  173ETHO    O158885  10.507   7.946   8.612
  173ETHO    C158886  10.543   7.865   8.498
  173ETHO   H1158887  10.509   7.918   8.406
  173ETHO   H1358888  10.652   7.845   8.495
  173ETHO    C258889  10.471   7.729   8.510
  173ETHO   H2158890  10.514   7.666   8.430
  173ETHO   H2358891  10.500   7.680   8.605
  174ETHO    O158892  10.331   7.725   8.489
  174ETHO    C158893  10.282   7.596   8.520
  174ETHO   H1158894  10.338   7.518   8.465
  174ETHO   H1358895  10.284   7.566   8.627
  174ETHO    C258896  10.133   7.564   8.491
  174ETHO   H2158897  10.075   7.652   8.526
  174ETHO   H2358898  10.105   7.471   8.544
  175ETHO    O158899  10.102   7.546   8.351
  175ETHO    C158900   9.960   7.563   8.327
  175ETHO   H1158901   9.910   7.476   8.374
  175ETHO   H1358902   9.925   7.646   8.392
  175ETHO    C258903   9.932   7.565   8.173
  175ETHO   H2158904   9.983   7.646   8.118
  175ETHO   H2358905   9.822   7.574   8.160
  176ETHO    O158906   9.959   7.443   8.104
  176ETHO    C158907   9.928   7.445   7.968
  176ETHO   H1158908   9.834   7.501   7.952
  176ETHO   H1358909  10.005   7.505   7.916
  176ETHO    C258910   9.922   7.308   7.897
  176ETHO   H2158911  10.026   7.268   7.898
  176ETHO   H2358912   9.901   7.320   7.789
  177ETHO    O158913   9.820   7.218   7.943
  177ETHO    C158914   9.857   7.162   8.064
  177ETHO   H1158915   9.862   7.245   8.138
  177ETHO   H1358916   9.954   7.111   8.052
  177ETHO    C258917   9.754   7.059   8.111
  177ETHO   H2158918   9.654   7.105   8.125
  177ETHO   H2358919   9.780   7.026   8.214
  178ETHO    O158920   9.754   6.944   8.028
  178ETHO    C158921   9.617   6.891   8.022
  178ETHO   H1158922   9.601   6.860   8.128
  178ETHO   H1358923   9.556   6.979   7.992
  178ETHO    C258924   9.609   6.769   7.921
  178ETHO   H2158925   9.508   6.721   7.922
  178ETHO   H2358926   9.680   6.687   7.947
  179ETHO    O158927   9.630   6.798   7.781
  179ETHO    C158928   9.525   6.888   7.731
  179ETHO   H1158929   9.550   6.987   7.773
  179ETHO   H1358930   9.422   6.856   7.758
  179ETHO    C258931   9.530   6.891   7.576
  179ETHO   H2158932   9.632   6.917   7.538
  179ETHO   H2358933   9.483   6.982   7.532
  180ETHO    O158934   9.483   6.769   7.529
  180ETHO    C158935   9.483   6.758   7.389
  180ETHO   H1158936   9.442   6.849   7.340
  180ETHO   H1358937   9.592   6.748   7.369
  180ETHO    C258938   9.419   6.635   7.338
  180ETHO   H2158939   9.475   6.553   7.387
  180ETHO   H2358940   9.429   6.615   7.230
  181ETHO    O158941   9.280   6.639   7.382
  181ETHO    C158942   9.196   6.721   7.299
  181ETHO   H1158943   9.232   6.719   7.194
  181ETHO   H1358944   9.199   6.825   7.338
  181ETHO    C258945   9.049   6.683   7.320
  181ETHO   H2158946   8.986   6.771   7.295
  181ETHO   H2358947   9.041   6.665   7.429
  182ETHO    O158948   9.013   6.578   7.237
  182ETHO    C158949   8.881   6.545   7.264
  182ETHO   H1158950   8.871   6.523   7.372
  182ETHO   H1358951   8.811   6.628   7.244
  182ETHO    C258952   8.823   6.416   7.192
  182ETHO   H2158953   8.720   6.396   7.228
  182ETHO   H2358954   8.886   6.327   7.215
  183ETHO    O158955   8.805   6.430   7.055
  183ETHO    C158956   8.793   6.298   6.986
  183ETHO   H1158957   8.837   6.220   7.052
  183ETHO   H1358958   8.854   6.304   6.893
  183ETHO    C258959   8.647   6.253   6.964
  183ETHO   H2158960   8.576   6.269   7.048
  183ETHO   H2358961   8.651   6.144   6.942
  184ETHO    O158962   8.588   6.302   6.846
  184ETHO    C158963   8.543   6.440   6.856
  184ETHO   H1158964   8.592   6.500   6.936
  184ETHO   H1358965   8.578   6.497   6.768
  184ETHO    C258966   8.393   6.458   6.881
  184ETHO   H2158967   8.341   6.402   6.800
  184ETHO   H2358968   8.368   6.566   6.868
  185ETHO    O158969   8.353   6.411   7.006
  185ETHO    C158970   8.215   6.455   7.033
  185ETHO   H1158971   8.194   6.563   7.020
  185ETHO   H1358972   8.146   6.404   6.964
  185ETHO    C258973   8.172   6.414   7.171
  185ETHO   H2158974   8.103   6.495   7.203
  185ETHO   H2358975   8.265   6.409   7.231
  186ETHO    O158976   8.106   6.288   7.185
  186ETHO    C158977   8.157   6.206   7.290
  186ETHO   H1158978   8.261   6.176   7.262
  186ETHO   H1358979   8.152   6.271   7.380
  186ETHO    C258980   8.076   6.077   7.320
  186ETHO   H2158981   7.978   6.099   7.369
  186ETHO   H2358982   8.119   6.016   7.402
  187ETHO    O158983   8.067   6.000   7.198
  187ETHO    C158984   8.048   5.857   7.215
  187ETHO   H1158985   8.058   5.811   7.114
  187ETHO   H1358986   8.127   5.818   7.282
  187ETHO    C258987   7.907   5.828   7.271
  187ETHO   H2158988   7.869   5.731   7.232
  187ETHO   H2358989   7.846   5.904   7.218
  188ETHO    O158990   7.906   5.832   7.416
  188ETHO    C158991   7.772   5.869   7.461
  188ETHO   H1158992   7.708   5.783   7.429
  188ETHO   H1358993   7.736   5.959   7.407
  188ETHO    C258994   7.768   5.902   7.609
  188ETHO   H2158995   7.671   5.953   7.626
  188ETHO   H2358996   7.844   5.981   7.624
  189ETHO    O158997   7.796   5.803   7.706
  189ETHO    C158998   7.761   5.848   7.836
  189ETHO   H1158999   7.831   5.928   7.865
  189ETHO   H1359000   7.652   5.870   7.825
  189ETHO    C259001   7.781   5.739   7.939
  189ETHO   H2159002   7.891   5.721   7.933
  189ETHO   H2359003   7.719   5.656   7.900
  190ETHO    O159004   7.749   5.775   8.068
  190ETHO    C159005   7.777   5.671   8.154
  190ETHO   H1159006   7.882   5.683   8.189
  190ETHO   H1359007   7.781   5.573   8.103
  190ETHO    C259008   7.692   5.673   8.281
  190ETHO   H2159009   7.587   5.670   8.244
  190ETHO   H2359010   7.714   5.773   8.325
  191ETHO    O159011   7.714   5.578   8.383
  191ETHO    C159012   7.592   5.542   8.451
  191ETHO   H1159013   7.527   5.631   8.462
  191ETHO   H1359014   7.531   5.484   8.379
  191ETHO    C259015   7.611   5.452   8.570
  191ETHO   H2159016   7.509   5.433   8.612
  191ETHO   H2359017   7.671   5.505   8.648
  192ETHO    O159018   7.677   5.337   8.528
  192ETHO    C159019   7.712   5.253   8.636
  192ETHO   H1159020   7.615   5.214   8.675
  192ETHO   H1359021   7.761   5.309   8.718
  192ETHO    C259022   7.805   5.144   8.571
  192ETHO   H2159023   7.761   5.121   8.472
  192ETHO   H2359024   7.806   5.046   8.624
  193ETHO    O159025   7.944   5.173   8.569
  193ETHO    C159026   8.014   5.070   8.498
  193ETHO   H1159027   8.012   4.972   8.551
  193ETHO   H1359028   7.954   5.067   8.405
  193ETHO    C259029   8.158   5.116   8.472
  193ETHO   H2159030   8.160   5.227   8.481
  193ETHO   H2359031   8.185   5.090   8.367
  194ETHO    O159032   8.256   5.051   8.560
  194ETHO    C159033   8.388   5.085   8.518
  194ETHO   H1159034   8.405   5.103   8.410
  194ETHO   H1359035   8.439   4.990   8.543
  194ETHO    C259036   8.467   5.194   8.596
  194ETHO   H2159037   8.574   5.163   8.592
  194ETHO   H2359038   8.438   5.190   8.703
  195ETHO    O159039   8.465   5.321   8.540
  195ETHO    C159040   8.569   5.401   8.590
  195ETHO   H1159041   8.519   5.500   8.584
  195ETHO   H1359042   8.584   5.371   8.696
  195ETHO    C259043   8.706   5.395   8.517
  195ETHO   H2159044   8.776   5.473   8.554
  195ETHO   H2359045   8.687   5.415   8.410
  196ETHO    O159046   8.791   5.281   8.523
  196ETHO    C159047   8.855   5.271   8.649
  196ETHO   H1159048   8.912   5.361   8.681
  196ETHO   H1359049   8.781   5.245   8.727
  196ETHO    C259050   8.941   5.140   8.656
  196ETHO   H2159051   8.875   5.053   8.636
  196ETHO   H2359052   8.982   5.127   8.759
  197ETHO    O159053   9.046   5.139   8.573
  197ETHO    C159054   9.107   5.012   8.567
  197ETHO   H1159055   9.137   4.972   8.666
  197ETHO   H1359056   9.037   4.939   8.521
  197ETHO    C259057   9.227   5.029   8.469
  197ETHO   H2159058   9.185   5.092   8.388
  197ETHO   H2359059   9.263   4.934   8.424
  198ETHO    O159060   9.339   5.098   8.535
  198ETHO    C159061   9.432   5.159   8.445
  198ETHO   H1159062   9.516   5.086   8.449
  198ETHO   H1359063   9.402   5.185   8.341
  198ETHO    C259064   9.490   5.296   8.500
  198ETHO   H2159065   9.558   5.336   8.422
  198ETHO   H2359066   9.542   5.268   8.594
  199ETHO    O159067   9.381   5.380   8.541
  199ETHO    C159068   9.429   5.483   8.627
  199ETHO   H1159069   9.525   5.518   8.584
  199ETHO   H1359070   9.441   5.444   8.730
  199ETHO    C259071   9.321   5.592   8.627
  199ETHO   H2159072   9.291   5.614   8.523
  199ETHO   H2359073   9.350   5.684   8.682
  200ETHO    O159074   9.209   5.542   8.698
  200ETHO    C159075   9.097   5.631   8.685
  200ETHO   H1159076   9.109   5.698   8.598
  200ETHO   H1359077   9.014   5.565   8.653
  200ETHO    C259078   9.058   5.706   8.803
  200ETHO   H2159079   9.020   5.640   8.885
  200ETHO   H2359080   8.985   5.784   8.775
  201ETHO    O159081   9.167   5.764   8.867
  201ETHO    C159082   9.200   5.888   8.805
  201ETHO   H1159083   9.108   5.950   8.804
  201ETHO   H1359084   9.232   5.871   8.700
  201ETHO    C259085   9.317   5.949   8.883
  201ETHO   H2159086   9.369   6.031   8.829
  201ETHO   H2359087   9.399   5.876   8.901
  202ETHO    O159088   9.284   6.030   9.000
  202ETHO    C159089   9.216   5.957   9.102
  202ETHO   H1159090   9.125   5.911   9.057
  202ETHO   H1359091   9.288   5.874   9.124
  202ETHO    C259092   9.171   6.051   9.213
  202ETHO   H2159093   9.087   5.993   9.258
  202ETHO   H2359094   9.128   6.148   9.179
  203ETHO    O159095   9.277   6.076   9.301
  203ETHO    C159096   9.243   6.140   9.422
  203ETHO   H1159097   9.163   6.080   9.472
  203ETHO   H1359098   9.187   6.234   9.404
  203ETHO    C259099   9.368   6.171   9.502
  203ETHO   H2159100   9.347   6.242   9.584
  203ETHO   H2359101   9.453   6.202   9.437
  204ETHO    O159102   9.406   6.052   9.571
  204ETHO    C159103   9.502   5.969   9.507
  204ETHO   H1159104   9.469   5.864   9.518
  204ETHO   H1359105   9.495   5.987   9.398
  204ETHO    C259106   9.642   5.984   9.566
  204ETHO   H2159107   9.704   5.895   9.544
  204ETHO   H2359108   9.632   5.990   9.677
  205ETHO    O159109   9.706   6.107   9.520
  205ETHO    C159110   9.844   6.101   9.539
  205ETHO   H1159111   9.900   6.043   9.463
  205ETHO   H1359112   9.857   6.061   9.642
  205ETHO    C259113   9.916   6.242   9.549
  205ETHO   H2159114  10.019   6.223   9.586
  205ETHO   H2359115   9.870   6.295   9.635
  206ETHO    O159116   9.919   6.309   9.421
  206ETHO    C159117   9.813   6.402   9.417
  206ETHO   H1159118   9.721   6.340   9.406
  206ETHO   H1359119   9.804   6.466   9.507
  206ETHO    C259120   9.837   6.502   9.299
  206ETHO   H2159121   9.849   6.449   9.202
  206ETHO   H2359122   9.742   6.560   9.295
  207ETHO    O159123   9.940   6.599   9.308
  207ETHO    C159124   9.898   6.705   9.395
  207ETHO   H1159125   9.865   6.660   9.491
  207ETHO   H1359126   9.820   6.768   9.347
  207ETHO    C259127  10.018   6.797   9.424
  207ETHO   H2159128  10.114   6.742   9.426
  207ETHO   H2359129  10.017   6.842   9.525
  208ETHO    O159130  10.037   6.896   9.322
  208ETHO    C159131  10.123   6.997   9.363
  208ETHO   H1159132  10.130   7.072   9.282
  208ETHO   H1359133  10.076   7.048   9.450
  208ETHO    C259134  10.272   6.966   9.401
  208ETHO   H2159135  10.287   6.884   9.475
  208ETHO   H2359136  10.328   7.052   9.446
  209ETHO    O159137  10.336   6.925   9.282
  209ETHO    C159138  10.477   6.914   9.290
  209ETHO   H1159139  10.511   6.855   9.378
  209ETHO   H1359140  10.512   7.018   9.303
  209ETHO    C259141  10.527   6.851   9.154
  209ETHO   H2159142  10.637   6.869   9.154
  209ETHO   H2359143  10.495   6.915   9.069
  210ETHO    O159144  10.510   6.713   9.145
  210ETHO    C159145  10.607   6.642   9.074
  210ETHO   H1159146  10.640   6.710   8.993
  210ETHO   H1359147  10.695   6.634   9.142
  210ETHO    C259148  10.568   6.502   9.026
  210ETHO   H2159149  10.503   6.448   9.098
  210ETHO   H2359150  10.658   6.443   9.001
  211ETHO    O159151  10.482   6.504   8.908
  211ETHO    C159152  10.415   6.380   8.891
  211ETHO   H1159153  10.435   6.346   8.787
  211ETHO   H1359154  10.458   6.301   8.955
  211ETHO    C259155  10.266   6.384   8.906
  211ETHO   H2159156  10.237   6.441   8.997
  211ETHO   H2359157  10.223   6.282   8.914
  212ETHO    O159158  10.207   6.445   8.794
  212ETHO    C159159  10.066   6.425   8.794
  212ETHO   H1159160  10.027   6.413   8.897
  212ETHO   H1359161  10.027   6.519   8.751
  212ETHO    C259162  10.024   6.305   8.716
  212ETHO   H2159163  10.090   6.309   8.626
  212ETHO   H2359164   9.919   6.304   8.681
  213ETHO    O159165  10.046   6.178   8.783
  213ETHO    C159166  10.095   6.080   8.692
  213ETHO   H1159167  10.154   6.117   8.605
  213ETHO   H1359168  10.158   6.007   8.746
  213ETHO    C259169   9.970   5.999   8.635
  213ETHO   H2159170   9.885   5.996   8.707
  213ETHO   H2359171  10.019   5.901   8.613
  214ETHO    O159172   9.930   6.046   8.506
  214ETHO    C159173   9.802   5.985   8.478
  214ETHO   H1159174   9.768   6.051   8.395
  214ETHO   H1359175   9.723   5.996   8.555
  214ETHO    C259176   9.819   5.838   8.429
  214ETHO   H2159177   9.902   5.839   8.356
  214ETHO   H2359178   9.730   5.804   8.371
  215ETHO    O159179   9.837   5.748   8.539
  215ETHO    C159180   9.819   5.614   8.486
  215ETHO   H1159181   9.710   5.594   8.498
  215ETHO   H1359182   9.843   5.604   8.378
  215ETHO    C259183   9.896   5.507   8.563
  215ETHO   H2159184  10.002   5.539   8.576
  215ETHO   H2359185   9.885   5.404   8.524
  216ETHO    O159186   9.842   5.503   8.691
  216ETHO    C159187   9.910   5.412   8.767
  216ETHO   H1159188  10.021   5.413   8.753
  216ETHO   H1359189   9.882   5.310   8.732
  216ETHO    C259190   9.871   5.423   8.914
  216ETHO   H2159191   9.892   5.325   8.962
  216ETHO   H2359192   9.761   5.430   8.932
  217ETHO    O159193   9.947   5.524   8.977
  217ETHO    C159194   9.908   5.533   9.116
  217ETHO   H1159195   9.804   5.568   9.133
  217ETHO   H1359196   9.916   5.434   9.166
  217ETHO    C259197  10.006   5.644   9.174
  217ETHO   H2159198  10.112   5.611   9.168
  217ETHO   H2359199   9.986   5.657   9.283
  218ETHO    O159200   9.991   5.773   9.103
  218ETHO    C159201  10.063   5.873   9.168
  218ETHO   H1159202  10.171   5.855   9.148
  218ETHO   H1359203  10.048   5.873   9.278
  218ETHO    C259204  10.028   5.999   9.097
  218ETHO   H2159205  10.011   5.986   8.988
  218ETHO   H2359206  10.112   6.071   9.111
  219ETHO    O159207   9.909   6.046   9.158
  219ETHO    C159208   9.852   6.156   9.089
  219ETHO   H1159209   9.787   6.207   9.163
  219ETHO   H1359210   9.929   6.217   9.037
  219ETHO    C259211   9.765   6.105   8.970
  219ETHO   H2159212   9.672   6.053   9.002
  219ETHO   H2359213   9.819   6.034   8.904
  220ETHO    O159214   9.736   6.210   8.883
  220ETHO    C159215   9.631   6.169   8.792
  220ETHO   H1159216   9.533   6.141   8.837
  220ETHO   H1359217   9.653   6.091   8.717
  220ETHO    C259218   9.593   6.299   8.716
  220ETHO   H2159219   9.530   6.271   8.629
  220ETHO   H2359220   9.691   6.341   8.683
  221ETHO    O159221   9.523   6.389   8.801
  221ETHO    C159222   9.514   6.518   8.743
  221ETHO   H1159223   9.617   6.551   8.714
  221ETHO   H1359224   9.454   6.515   8.650
  221ETHO    C259225   9.465   6.625   8.843
  221ETHO   H2159226   9.373   6.591   8.895
  221ETHO   H2359227   9.426   6.716   8.792
  222ETHO    O159228   9.571   6.658   8.935
  222ETHO    C159229   9.552   6.791   8.993
  222ETHO   H1159230   9.519   6.858   8.911
  222ETHO   H1359231   9.459   6.771   9.052
  222ETHO    C259232   9.669   6.835   9.082
  222ETHO   H2159233   9.755   6.820   9.013
  222ETHO   H2359234   9.692   6.783   9.178
  223ETHO    O159235   9.654   6.976   9.103
  223ETHO    C159236   9.770   7.039   9.164
  223ETHO   H1159237   9.801   6.973   9.248
  223ETHO   H1359238   9.850   7.048   9.088
  223ETHO    C259239   9.739   7.176   9.222
  223ETHO   H2159240   9.837   7.220   9.251
  223ETHO   H2359241   9.678   7.155   9.313
  224ETHO    O159242   9.689   7.260   9.123
  224ETHO    C159243   9.607   7.361   9.174
  224ETHO   H1159244   9.532   7.320   9.245
  224ETHO   H1359245   9.666   7.426   9.241
  224ETHO    C259246   9.523   7.437   9.065
  224ETHO   H2159247   9.596   7.479   8.993
  224ETHO   H2359248   9.474   7.528   9.106
  225ETHO    O159249   9.426   7.352   9.004
  225ETHO    C159250   9.368   7.405   8.880
  225ETHO   H1159251   9.365   7.516   8.892
  225ETHO   H1359252   9.269   7.356   8.869
  225ETHO    C259253   9.464   7.362   8.763
  225ETHO   H2159254   9.571   7.374   8.788
  225ETHO   H2359255   9.438   7.428   8.677
  226ETHO    O159256   9.443   7.227   8.722
  226ETHO    C159257   9.530   7.195   8.622
  226ETHO   H1159258   9.545   7.281   8.552
  226ETHO   H1359259   9.626   7.167   8.670
  226ETHO    C259260   9.496   7.072   8.533
  226ETHO   H2159261   9.548   7.073   8.435
  226ETHO   H2359262   9.385   7.073   8.521
  227ETHO    O159263   9.516   6.947   8.599
  227ETHO    C159264   9.638   6.884   8.549
  227ETHO   H1159265   9.678   6.817   8.628
  227ETHO   H1359266   9.714   6.964   8.540
  227ETHO    C259267   9.621   6.791   8.428
  227ETHO   H2159268   9.648   6.839   8.332
  227ETHO   H2359269   9.512   6.768   8.418
  228ETHO    O159270   9.704   6.681   8.450
  228ETHO    C159271   9.677   6.583   8.358
  228ETHO   H1159272   9.578   6.592   8.308
  228ETHO   H1359273   9.750   6.599   8.277
  228ETHO    C259274   9.689   6.444   8.410
  228ETHO   H2159275   9.587   6.401   8.421
  228ETHO   H2359276   9.736   6.434   8.510
  229ETHO    O159277   9.768   6.371   8.319
  229ETHO    C159278   9.703   6.347   8.195
  229ETHO   H1159279   9.639   6.434   8.169
  229ETHO   H1359280   9.639   6.257   8.207
  229ETHO    C259281   9.792   6.338   8.074
  229ETHO   H2159282   9.878   6.408   8.074
  229ETHO   H2359283   9.723   6.364   7.991
  230ETHO    O159284   9.825   6.203   8.076
  230ETHO    C159285   9.950   6.179   8.013
  230ETHO   H1159286   9.941   6.187   7.902
  230ETHO   H1359287  10.026   6.257   8.037
  230ETHO    C259288  10.014   6.035   8.018
  230ETHO   H2159289  10.048   6.001   8.118
  230ETHO   H2359290  10.106   6.052   7.956
  231ETHO    O159291   9.918   5.940   7.969
  231ETHO    C159292   9.967   5.803   7.962
  231ETHO   H1159293  10.008   5.769   8.060
  231ETHO   H1359294  10.047   5.790   7.886
  231ETHO    C259295   9.847   5.710   7.935
  231ETHO   H2159296   9.752   5.740   7.983
  231ETHO   H2359297   9.868   5.614   7.987
  232ETHO    O159298   9.819   5.693   7.800
  232ETHO    C159299   9.884   5.568   7.750
  232ETHO   H1159300   9.915   5.590   7.645
  232ETHO   H1359301   9.975   5.532   7.802
  232ETHO    C259302   9.781   5.449   7.746
  232ETHO   H2159303   9.678   5.474   7.713
  232ETHO   H2359304   9.755   5.419   7.849
  233ETHO    O159305   9.820   5.332   7.673
  233ETHO    C159306   9.785   5.342   7.537
  233ETHO   H1159307   9.674   5.350   7.527
  233ETHO   H1359308   9.821   5.440   7.499
  233ETHO    C259309   9.842   5.213   7.469
  233ETHO   H2159310   9.947   5.207   7.505
  233ETHO   H2359311   9.839   5.231   7.360
  234ETHO    O159312   9.770   5.096   7.502
  234ETHO    C159313   9.848   4.978   7.487
  234ETHO   H1159314   9.956   4.987   7.464
  234ETHO   H1359315   9.841   4.940   7.591
  234ETHO    C259316   9.782   4.881   7.389
  234ETHO   H2159317   9.674   4.872   7.416
  234ETHO   H2359318   9.820   4.777   7.387
  235ETHO    O159319   9.812   4.923   7.255
  235ETHO    C159320   9.716   5.009   7.192
  235ETHO   H1159321   9.617   4.959   7.195
  235ETHO   H1359322   9.713   5.110   7.240
  235ETHO    C259323   9.749   5.031   7.043
  235ETHO   H2159324   9.851   5.073   7.035
  235ETHO   H2359325   9.677   5.105   7.000
  236ETHO    O159326   9.733   4.907   6.980
  236ETHO    C159327   9.738   4.912   6.839
  236ETHO   H1159328   9.830   4.966   6.806
  236ETHO   H1359329   9.655   4.981   6.813
  236ETHO    C259330   9.710   4.771   6.787
  236ETHO   H2159331   9.675   4.762   6.682
  236ETHO   H2359332   9.628   4.736   6.854
  237ETHO    O159333   9.819   4.684   6.794
  237ETHO    C159334   9.920   4.719   6.708
  237ETHO   H1159335   9.885   4.718   6.602
  237ETHO   H1359336   9.957   4.818   6.742
  237ETHO    C259337  10.036   4.623   6.714
  237ETHO   H2159338  10.072   4.614   6.819
  237ETHO   H2359339  10.126   4.673   6.672
  238ETHO    O159340  10.039   4.492   6.654
  238ETHO    C159341  10.034   4.493   6.512
  238ETHO   H1159342  10.072   4.590   6.472
  238ETHO   H1359343   9.934   4.465   6.473
  238ETHO    C259344  10.137   4.392   6.462
  238ETHO   H2159345  10.222   4.409   6.532
  238ETHO   H2359346  10.179   4.416   6.362
  239ETHO    O159347  10.104   4.256   6.474
  239ETHO    C159348  10.214   4.171   6.444
  239ETHO   H1159349  10.285   4.207   6.367
  239ETHO   H1359350  10.275   4.151   6.535
  239ETHO    C259351  10.153   4.034   6.403
  239ETHO   H2159352  10.228   3.952   6.395
  239ETHO   H2359353  10.073   4.007   6.475
  240ETHO    O159354  10.096   4.039   6.271
  240ETHO    C159355  10.004   3.929   6.255
  240ETHO   H1159356   9.930   3.922   6.337
  240ETHO   H1359357  10.048   3.827   6.245
  240ETHO    C259358   9.919   3.969   6.131
  240ETHO   H2159359   9.878   4.071   6.145
  240ETHO   H2359360   9.830   3.902   6.134
  241ETHO    O159361   9.989   3.945   6.012
  241ETHO    C159362   9.927   3.988   5.894
  241ETHO   H1159363   9.824   3.947   5.886
  241ETHO   H1359364   9.918   4.098   5.901
  241ETHO    C259365   9.997   3.941   5.768
  241ETHO   H2159366  10.107   3.952   5.779
  241ETHO   H2359367   9.952   3.992   5.680
  242ETHO    O159368   9.972   3.800   5.755
  242ETHO    C159369  10.017   3.767   5.623
  242ETHO   H1159370  10.121   3.805   5.619
  242ETHO   H1359371   9.959   3.827   5.550
  242ETHO    C259372  10.004   3.622   5.583
  242ETHO   H2159373  10.064   3.568   5.659
  242ETHO   H2359374  10.049   3.608   5.482
  243ETHO    O159375   9.874   3.574   5.586
  243ETHO    C159376   9.875   3.433   5.601
  243ETHO   H1159377   9.941   3.401   5.685
  243ETHO   H1359378   9.769   3.417   5.628
  243ETHO    C259379   9.910   3.353   5.473
  243ETHO   H2159380  10.019   3.360   5.453
  243ETHO   H2359381   9.846   3.396   5.393
  244ETHO    O159382   9.857   3.216   5.476
  244ETHO    C159383   9.942   3.128   5.545
  244ETHO   H1159384   9.937   3.154   5.653
  244ETHO   H1359385  10.041   3.122   5.495
  244ETHO    C259386   9.882   2.988   5.549
  244ETHO   H2159387   9.776   2.999   5.582
  244ETHO   H2359388   9.934   2.938   5.634
  245ETHO    O159389   9.889   2.909   5.436
  245ETHO    C159390   9.856   2.775   5.473
  245ETHO   H1159391   9.879   2.715   5.382
  245ETHO   H1359392   9.917   2.736   5.557
  245ETHO    C259393   9.705   2.764   5.483
  245ETHO   H2159394   9.680   2.656   5.468
  245ETHO   H2359395   9.658   2.822   5.401
  246ETHO    O159396   9.651   2.814   5.612
  246ETHO    C159397   9.523   2.868   5.601
  246ETHO   H1159398   9.452   2.793   5.558
  246ETHO   H1359399   9.523   2.956   5.533
  246ETHO    C259400   9.475   2.885   5.742
  246ETHO   H2159401   9.539   2.960   5.794
  246ETHO   H2359402   9.473   2.785   5.789
  247ETHO    O159403   9.343   2.941   5.743
  247ETHO    C159404   9.295   2.943   5.877
  247ETHO   H1159405   9.305   2.843   5.924
  247ETHO   H1359406   9.364   3.007   5.936
  247ETHO    C259407   9.151   2.991   5.889
  247ETHO   H2159408   9.132   3.008   5.997
  247ETHO   H2359409   9.142   3.092   5.843
  248ETHO    O159410   9.064   2.900   5.821
  248ETHO    C159411   8.932   2.943   5.836
  248ETHO   H1159412   8.916   2.945   5.946
  248ETHO   H1359413   8.910   3.039   5.785
  248ETHO    C259414   8.832   2.838   5.784
  248ETHO   H2159415   8.871   2.793   5.690
  248ETHO   H2359416   8.729   2.877   5.769
  249ETHO    O159417   8.812   2.732   5.885
  249ETHO    C159418   8.915   2.631   5.885
  249ETHO   H1159419   8.917   2.576   5.789
  249ETHO   H1359420   9.015   2.680   5.888
  249ETHO    C259421   8.894   2.548   6.000
  249ETHO   H2159422   8.971   2.467   6.005
  249ETHO   H2359423   8.797   2.498   5.981
  250ETHO    O159424   8.905   2.624   6.119
  250ETHO    C159425   8.833   2.559   6.221
  250ETHO   H1159426   8.727   2.556   6.188
  250ETHO   H1359427   8.871   2.454   6.225
  250ETHO    C259428   8.854   2.643   6.350
  250ETHO   H2159429   8.962   2.642   6.375
  250ETHO   H2359430   8.817   2.595   6.443
  251ETHO    O159431   8.809   2.776   6.340
  251ETHO    C159432   8.822   2.844   6.466
  251ETHO   H1159433   8.867   2.774   6.540
  251ETHO   H1359434   8.722   2.860   6.511
  251ETHO    C259435   8.887   2.984   6.455
  251ETHO   H2159436   8.843   3.045   6.537
  251ETHO   H2359437   8.862   3.035   6.359
  252ETHO    O159438   9.029   2.967   6.463
  252ETHO    C159439   9.083   3.101   6.449
  252ETHO   H1159440   9.188   3.077   6.420
  252ETHO   H1359441   9.030   3.150   6.364
  252ETHO    C259442   9.089   3.198   6.570
  252ETHO   H2159443   9.164   3.276   6.547
  252ETHO   H2359444   9.120   3.146   6.663
  253ETHO    O159445   8.964   3.271   6.583
  253ETHO    C159446   8.962   3.362   6.693
  253ETHO   H1159447   9.042   3.436   6.673
  253ETHO   H1359448   8.986   3.310   6.789
  253ETHO    C259449   8.823   3.414   6.703
  253ETHO   H2159450   8.818   3.444   6.809
  253ETHO   H2359451   8.746   3.337   6.681
  254ETHO    O159452   8.793   3.532   6.633
  254ETHO    C159453   8.758   3.505   6.497
  254ETHO   H1159454   8.820   3.422   6.455
  254ETHO   H1359455   8.656   3.466   6.516
  254ETHO    C259456   8.770   3.618   6.394
  254ETHO   H2159457   8.700   3.699   6.425
  254ETHO   H2359458   8.729   3.571   6.303
  255ETHO    O159459   8.904   3.663   6.377
  255ETHO    C159460   8.916   3.757   6.271
  255ETHO   H1159461   8.836   3.833   6.280
  255ETHO   H1359462   8.907   3.713   6.170
  255ETHO    C259463   9.041   3.844   6.289
  255ETHO   H2159464   9.043   3.885   6.392
  255ETHO   H2359465   9.037   3.926   6.214
  256ETHO    O159466   9.162   3.769   6.273
  256ETHO    C159467   9.281   3.838   6.314
  256ETHO   H1159468   9.281   3.934   6.258
  256ETHO   H1359469   9.282   3.873   6.420
  256ETHO    C259470   9.403   3.755   6.279
  256ETHO   H2159471   9.404   3.665   6.345
  256ETHO   H2359472   9.493   3.818   6.299
  257ETHO    O159473   9.422   3.724   6.139
  257ETHO    C159474   9.538   3.649   6.119
  257ETHO   H1159475   9.528   3.559   6.183
  257ETHO   H1359476   9.629   3.701   6.156
  257ETHO    C259477   9.551   3.620   5.972
  257ETHO   H2159478   9.455   3.589   5.926
  257ETHO   H2359479   9.627   3.540   5.961
  258ETHO    O159480   9.614   3.729   5.900
  258ETHO    C159481   9.587   3.724   5.759
  258ETHO   H1159482   9.656   3.647   5.720
  258ETHO   H1359483   9.480   3.702   5.739
  258ETHO    C259484   9.617   3.847   5.670
  258ETHO   H2159485   9.605   3.816   5.564
  258ETHO   H2359486   9.722   3.881   5.689
  259ETHO    O159487   9.523   3.949   5.699
  259ETHO    C159488   9.564   4.076   5.639
  259ETHO   H1159489   9.511   4.165   5.678
  259ETHO   H1359490   9.675   4.087   5.649
  259ETHO    C259491   9.534   4.076   5.488
  259ETHO   H2159492   9.539   4.184   5.463
  259ETHO   H2359493   9.433   4.037   5.466
  260ETHO    O159494   9.632   4.007   5.414
  260ETHO    C159495   9.673   4.089   5.309
  260ETHO   H1159496   9.584   4.128   5.255
  260ETHO   H1359497   9.743   4.164   5.354
  260ETHO    C259498   9.763   4.016   5.213
  260ETHO   H2159499   9.709   3.924   5.182
  260ETHO   H2359500   9.855   3.990   5.270
  261ETHO    O159501   9.793   4.097   5.104
  261ETHO    C159502   9.886   4.035   5.016
  261ETHO   H1159503   9.896   3.924   5.015
  261ETHO   H1359504   9.844   4.059   4.917
  261ETHO    C259505  10.026   4.084   5.025
  261ETHO   H2159506  10.091   4.030   4.953
  261ETHO   H2359507  10.063   4.059   5.127
  262ETHO    O159508  10.042   4.224   5.009
  262ETHO    C159509  10.169   4.273   5.044
  262ETHO   H1159510  10.231   4.225   4.966
  262ETHO   H1359511  10.200   4.226   5.139
  262ETHO    C259512  10.203   4.417   5.057
  262ETHO   H2159513  10.166   4.469   4.967
  262ETHO   H2359514  10.314   4.427   5.065
  263ETHO    O159515  10.139   4.473   5.173
  263ETHO    C159516  10.167   4.608   5.192
  263ETHO   H1159517  10.109   4.674   5.123
  263ETHO   H1359518  10.272   4.634   5.165
  263ETHO    C259519  10.140   4.663   5.332
  263ETHO   H2159520  10.212   4.748   5.333
  263ETHO   H2359521  10.182   4.596   5.410
  264ETHO    O159522  10.013   4.702   5.362
  264ETHO    C159523   9.943   4.617   5.451
  264ETHO   H1159524  10.018   4.574   5.520
  264ETHO   H1359525   9.900   4.532   5.393
  264ETHO    C259526   9.832   4.690   5.524
  264ETHO   H2159527   9.806   4.636   5.617
  264ETHO   H2359528   9.748   4.710   5.454
  265ETHO    O159529   9.874   4.817   5.571
  265ETHO    C159530   9.762   4.894   5.610
  265ETHO   H1159531   9.690   4.917   5.528
  265ETHO   H1359532   9.706   4.843   5.692
  265ETHO    C259533   9.814   5.028   5.663
  265ETHO   H2159534   9.731   5.102   5.673
  265ETHO   H2359535   9.889   5.084   5.604
  265ETHO    OZ59536   9.867   5.007   5.792
  265ETHO   HZ159537   9.861   5.092   5.837
    1ETHO    O159538  21.426   6.429  14.957
    1ETHO   HO159539  21.460   6.498  14.899
    1ETHO    C159540  21.291   6.412  14.900
    1ETHO   H1159541  21.251   6.310  14.920
    1ETHO   H1359542  21.292   6.428  14.790
    1ETHO    C259543  21.203   6.507  14.980
    1ETHO   H2159544  21.227   6.507  15.088
    1ETHO   H2359545  21.101   6.463  14.965
    2ETHO    O159546  21.224   6.638  14.929
    2ETHO    C159547  21.106   6.689  14.863
    2ETHO   H1159548  21.140   6.769  14.794
    2ETHO   H1359549  21.057   6.619  14.792
    2ETHO    C259550  20.998   6.755  14.951
    2ETHO   H2159551  20.927   6.817  14.892
    2ETHO   H2359552  21.053   6.828  15.014
    3ETHO    O159553  20.925   6.655  15.016
    3ETHO    C159554  20.809   6.698  15.086
    3ETHO   H1159555  20.734   6.733  15.011
    3ETHO   H1359556  20.831   6.771  15.166
    3ETHO    C259557  20.752   6.571  15.161
    3ETHO   H2159558  20.759   6.480  15.098
    3ETHO   H2359559  20.647   6.590  15.194
    4ETHO    O159560  20.830   6.557  15.279
    4ETHO    C159561  20.805   6.433  15.350
    4ETHO   H1159562  20.695   6.425  15.363
    4ETHO   H1359563  20.851   6.338  15.315
    4ETHO    C259564  20.849   6.460  15.498
    4ETHO   H2159565  20.950   6.506  15.498
    4ETHO   H2359566  20.845   6.365  15.557
    5ETHO    O159567  20.749   6.543  15.555
    5ETHO    C159568  20.747   6.558  15.692
    5ETHO   H1159569  20.761   6.463  15.747
    5ETHO   H1359570  20.844   6.610  15.710
    5ETHO    C259571  20.640   6.639  15.771
    5ETHO   H2159572  20.637   6.745  15.739
    5ETHO   H2359573  20.658   6.645  15.880
    6ETHO    O159574  20.505   6.589  15.744
    6ETHO    C159575  20.472   6.478  15.817
    6ETHO   H1159576  20.541   6.391  15.811
    6ETHO   H1359577  20.481   6.517  15.921
    6ETHO    C259578  20.324   6.435  15.796
    6ETHO   H2159579  20.264   6.527  15.815
    6ETHO   H2359580  20.302   6.357  15.872
    7ETHO    O159581  20.310   6.398  15.655
    7ETHO    C159582  20.169   6.403  15.621
    7ETHO   H1159583  20.125   6.498  15.659
    7ETHO   H1359584  20.150   6.400  15.511
    7ETHO    C259585  20.086   6.292  15.689
    7ETHO   H2159586  20.088   6.316  15.797
    7ETHO   H2359587  20.121   6.190  15.662
    8ETHO    O159588  19.951   6.324  15.649
    8ETHO    C159589  19.858   6.246  15.729
    8ETHO   H1159590  19.874   6.236  15.839
    8ETHO   H1359591  19.880   6.143  15.693
    8ETHO    C259592  19.713   6.281  15.701
    8ETHO   H2159593  19.648   6.195  15.727
    8ETHO   H2359594  19.712   6.299  15.592
    9ETHO    O159595  19.677   6.393  15.774
    9ETHO    C159596  19.542   6.442  15.746
    9ETHO   H1159597  19.552   6.483  15.643
    9ETHO   H1359598  19.470   6.364  15.714
    9ETHO    C259599  19.486   6.530  15.859
    9ETHO   H2159600  19.394   6.575  15.816
    9ETHO   H2359601  19.556   6.612  15.887
   10ETHO    O159602  19.460   6.452  15.971
   10ETHO    C159603  19.401   6.529  16.075
   10ETHO   H1159604  19.453   6.627  16.079
   10ETHO   H1359605  19.411   6.477  16.173
   10ETHO    C259606  19.255   6.552  16.060
   10ETHO   H2159607  19.228   6.588  15.959
   10ETHO   H2359608  19.228   6.628  16.137
   11ETHO    O159609  19.190   6.429  16.081
   11ETHO    C159610  19.140   6.421  16.213
   11ETHO   H1159611  19.220   6.396  16.285
   11ETHO   H1359612  19.100   6.516  16.252
   11ETHO    C259613  19.044   6.301  16.204
   11ETHO   H2159614  18.959   6.319  16.134
   11ETHO   H2359615  19.100   6.214  16.163
   12ETHO    O159616  18.987   6.274  16.330
   12ETHO    C159617  18.877   6.185  16.313
   12ETHO   H1159618  18.912   6.082  16.292
   12ETHO   H1359619  18.828   6.210  16.217
   12ETHO    C259620  18.781   6.198  16.433
   12ETHO   H2159621  18.675   6.190  16.401
   12ETHO   H2359622  18.781   6.303  16.467
   13ETHO    O159623  18.800   6.112  16.548
   13ETHO    C159624  18.859   6.178  16.669
   13ETHO   H1159625  18.942   6.251  16.662
   13ETHO   H1359626  18.786   6.241  16.724
   13ETHO    C259627  18.908   6.074  16.764
   13ETHO   H2159628  18.941   6.119  16.860
   13ETHO   H2359629  18.997   6.026  16.718
   14ETHO    O159630  18.807   5.976  16.792
   14ETHO    C159631  18.846   5.889  16.894
   14ETHO   H1159632  18.894   5.944  16.977
   14ETHO   H1359633  18.909   5.807  16.853
   14ETHO    C259634  18.714   5.814  16.943
   14ETHO   H2159635  18.638   5.892  16.966
   14ETHO   H2359636  18.723   5.763  17.041
   15ETHO    O159637  18.664   5.731  16.836
   15ETHO    C159638  18.543   5.664  16.871
   15ETHO   H1159639  18.526   5.599  16.782
   15ETHO   H1359640  18.569   5.596  16.955
   15ETHO    C259641  18.420   5.748  16.887
   15ETHO   H2159642  18.411   5.817  16.800
   15ETHO   H2359643  18.330   5.683  16.888
   16ETHO    O159644  18.407   5.834  16.999
   16ETHO    C159645  18.367   5.757  17.114
   16ETHO   H1159646  18.302   5.672  17.083
   16ETHO   H1359647  18.459   5.708  17.152
   16ETHO    C259648  18.299   5.845  17.224
   16ETHO   H2159649  18.375   5.924  17.243
   16ETHO   H2359650  18.286   5.784  17.316
   17ETHO    O159651  18.175   5.895  17.182
   17ETHO    C159652  18.116   5.962  17.292
   17ETHO   H1159653  18.105   5.895  17.380
   17ETHO   H1359654  18.185   6.042  17.328
   17ETHO    C259655  17.974   6.012  17.255
   17ETHO   H2159656  17.964   6.045  17.150
   17ETHO   H2359657  17.938   6.094  17.321
   18ETHO    O159658  17.874   5.911  17.283
   18ETHO    C159659  17.890   5.799  17.193
   18ETHO   H1159660  17.911   5.842  17.092
   18ETHO   H1359661  17.980   5.736  17.211
   18ETHO    C259662  17.765   5.704  17.202
   18ETHO   H2159663  17.762   5.646  17.107
   18ETHO   H2359664  17.672   5.764  17.207
   19ETHO    O159665  17.773   5.638  17.328
   19ETHO    C159666  17.700   5.518  17.327
   19ETHO   H1159667  17.727   5.463  17.235
   19ETHO   H1359668  17.589   5.529  17.327
   19ETHO    C259669  17.728   5.436  17.454
   19ETHO   H2159670  17.669   5.488  17.532
   19ETHO   H2359671  17.833   5.426  17.489
   20ETHO    O159672  17.684   5.306  17.433
   20ETHO    C159673  17.661   5.237  17.555
   20ETHO   H1159674  17.759   5.235  17.608
   20ETHO   H1359675  17.596   5.295  17.624
   20ETHO    C259676  17.614   5.103  17.526
   20ETHO   H2159677  17.646   5.031  17.605
   20ETHO   H2359678  17.670   5.067  17.437
   21ETHO    O159679  17.476   5.108  17.511
   21ETHO    C159680  17.419   4.999  17.441
   21ETHO   H1159681  17.313   4.987  17.471
   21ETHO   H1359682  17.477   4.914  17.483
   21ETHO    C259683  17.445   5.001  17.291
   21ETHO   H2159684  17.427   4.902  17.244
   21ETHO   H2359685  17.551   5.029  17.273
   22ETHO    O159686  17.372   5.103  17.230
   22ETHO    C159687  17.422   5.232  17.254
   22ETHO   H1159688  17.379   5.282  17.343
   22ETHO   H1359689  17.533   5.231  17.256
   22ETHO    C259690  17.375   5.315  17.124
   22ETHO   H2159691  17.402   5.421  17.139
   22ETHO   H2359692  17.417   5.273  17.030
   23ETHO    O159693  17.236   5.310  17.130
   23ETHO    C159694  17.178   5.371  17.011
   23ETHO   H1159695  17.240   5.345  16.923
   23ETHO   H1359696  17.198   5.480  17.015
   23ETHO    C259697  17.034   5.340  16.982
   23ETHO   H2159698  17.001   5.415  16.907
   23ETHO   H2359699  16.970   5.340  17.072
   24ETHO    O159700  17.033   5.209  16.924
   24ETHO    C159701  16.902   5.150  16.936
   24ETHO   H1159702  16.879   5.156  17.045
   24ETHO   H1359703  16.829   5.212  16.880
   24ETHO    C259704  16.910   5.007  16.880
   24ETHO   H2159705  16.959   5.009  16.781
   24ETHO   H2359706  16.811   4.957  16.866
   25ETHO    O159707  16.995   4.928  16.965
   25ETHO    C159708  17.032   4.806  16.905
   25ETHO   H1159709  17.032   4.811  16.794
   25ETHO   H1359710  16.967   4.727  16.948
   25ETHO    C259711  17.179   4.764  16.944
   25ETHO   H2159712  17.168   4.653  16.942
   25ETHO   H2359713  17.212   4.793  17.046
   26ETHO    O159714  17.277   4.814  16.852
   26ETHO    C159715  17.298   4.948  16.891
   26ETHO   H1159716  17.207   5.011  16.893
   26ETHO   H1359717  17.348   4.947  16.990
   26ETHO    C259718  17.374   5.025  16.777
   26ETHO   H2159719  17.469   4.969  16.757
   26ETHO   H2359720  17.396   5.126  16.817
   27ETHO    O159721  17.304   5.044  16.656
   27ETHO    C159722  17.383   5.079  16.544
   27ETHO   H1159723  17.463   5.004  16.524
   27ETHO   H1359724  17.437   5.172  16.571
   27ETHO    C259725  17.297   5.098  16.423
   27ETHO   H2159726  17.335   5.181  16.359
   27ETHO   H2359727  17.206   5.153  16.456
   28ETHO    O159728  17.276   4.980  16.355
   28ETHO    C159729  17.216   5.002  16.228
   28ETHO   H1159730  17.141   5.085  16.223
   28ETHO   H1359731  17.299   5.042  16.166
   28ETHO    C259732  17.155   4.870  16.179
   28ETHO   H2159733  17.124   4.875  16.072
   28ETHO   H2359734  17.066   4.842  16.239
   29ETHO    O159735  17.257   4.773  16.185
   29ETHO    C159736  17.211   4.656  16.250
   29ETHO   H1159737  17.105   4.641  16.218
   29ETHO   H1359738  17.210   4.679  16.358
   29ETHO    C259739  17.284   4.528  16.221
   29ETHO   H2159740  17.252   4.448  16.290
   29ETHO   H2359741  17.393   4.545  16.236
   30ETHO    O159742  17.260   4.482  16.083
   30ETHO    C159743  17.312   4.354  16.064
   30ETHO   H1159744  17.422   4.367  16.067
   30ETHO   H1359745  17.272   4.296  16.151
   30ETHO    C259746  17.270   4.290  15.923
   30ETHO   H2159747  17.325   4.194  15.916
   30ETHO   H2359748  17.298   4.366  15.848
   31ETHO    O159749  17.131   4.243  15.919
   31ETHO    C159750  17.037   4.350  15.922
   31ETHO   H1159751  17.041   4.401  16.020
   31ETHO   H1359752  17.050   4.423  15.840
   31ETHO    C259753  16.888   4.304  15.904
   31ETHO   H2159754  16.878   4.244  15.811
   31ETHO   H2359755  16.813   4.386  15.898
   32ETHO    O159756  16.840   4.229  16.017
   32ETHO    C159757  16.717   4.168  15.995
   32ETHO   H1159758  16.641   4.230  15.944
   32ETHO   H1359759  16.740   4.075  15.937
   32ETHO    C259760  16.651   4.121  16.129
   32ETHO   H2159761  16.726   4.060  16.182
   32ETHO   H2359762  16.563   4.056  16.111
   33ETHO    O159763  16.609   4.225  16.218
   33ETHO    C159764  16.520   4.172  16.318
   33ETHO   H1159765  16.415   4.162  16.281
   33ETHO   H1359766  16.554   4.071  16.349
   33ETHO    C259767  16.505   4.273  16.436
   33ETHO   H2159768  16.407   4.253  16.484
   33ETHO   H2359769  16.500   4.380  16.407
   34ETHO    O159770  16.622   4.259  16.522
   34ETHO    C159771  16.581   4.280  16.658
   34ETHO   H1159772  16.521   4.197  16.702
   34ETHO   H1359773  16.523   4.375  16.660
   34ETHO    C259774  16.705   4.300  16.735
   34ETHO   H2159775  16.677   4.343  16.834
   34ETHO   H2359776  16.780   4.369  16.691
   35ETHO    O159777  16.764   4.168  16.758
   35ETHO    C159778  16.874   4.184  16.845
   35ETHO   H1159779  16.964   4.220  16.792
   35ETHO   H1359780  16.852   4.260  16.923
   35ETHO    C259781  16.906   4.046  16.911
   35ETHO   H2159782  16.993   4.067  16.976
   35ETHO   H2359783  16.941   3.980  16.829
   36ETHO    O159784  16.793   3.995  16.982
   36ETHO    C159785  16.822   3.877  17.061
   36ETHO   H1159786  16.737   3.859  17.130
   36ETHO   H1359787  16.904   3.902  17.130
   36ETHO    C259788  16.841   3.744  16.982
   36ETHO   H2159789  16.766   3.742  16.900
   36ETHO   H2359790  16.819   3.665  17.056
   37ETHO    O159791  16.968   3.716  16.929
   37ETHO    C159792  16.985   3.603  16.846
   37ETHO   H1159793  16.925   3.518  16.885
   37ETHO   H1359794  16.946   3.640  16.749
   37ETHO    C259795  17.128   3.575  16.813
   37ETHO   H2159796  17.186   3.663  16.779
   37ETHO   H2359797  17.137   3.501  16.731
   38ETHO    O159798  17.175   3.521  16.935
   38ETHO    C159799  17.314   3.480  16.914
   38ETHO   H1159800  17.374   3.569  16.884
   38ETHO   H1359801  17.319   3.408  16.830
   38ETHO    C259802  17.381   3.414  17.034
   38ETHO   H2159803  17.481   3.379  17.002
   38ETHO   H2359804  17.323   3.327  17.074
   39ETHO    O159805  17.404   3.508  17.134
   39ETHO    C159806  17.498   3.470  17.227
   39ETHO   H1159807  17.458   3.371  17.257
   39ETHO   H1359808  17.595   3.456  17.176
   39ETHO    C259809  17.501   3.561  17.350
   39ETHO   H2159810  17.554   3.499  17.426
   39ETHO   H2359811  17.406   3.600  17.393
   40ETHO    O159812  17.585   3.676  17.314
   40ETHO    C159813  17.618   3.748  17.430
   40ETHO   H1159814  17.649   3.675  17.507
   40ETHO   H1359815  17.524   3.789  17.474
   40ETHO    C259816  17.720   3.864  17.417
   40ETHO   H2159817  17.740   3.911  17.515
   40ETHO   H2359818  17.684   3.934  17.338
   41ETHO    O159819  17.852   3.824  17.383
   41ETHO    C159820  17.855   3.802  17.243
   41ETHO   H1159821  17.809   3.701  17.228
   41ETHO   H1359822  17.777   3.862  17.192
   41ETHO    C259823  17.985   3.841  17.175
   41ETHO   H2159824  17.999   3.798  17.074
   41ETHO   H2359825  18.068   3.815  17.245
   42ETHO    O159826  17.989   3.979  17.154
   42ETHO    C159827  18.116   4.015  17.105
   42ETHO   H1159828  18.191   4.018  17.187
   42ETHO   H1359829  18.143   3.947  17.021
   42ETHO    C259830  18.123   4.167  17.050
   42ETHO   H2159831  18.210   4.211  17.102
   42ETHO   H2359832  18.044   4.236  17.087
   43ETHO    O159833  18.133   4.166  16.906
   43ETHO    C159834  18.014   4.132  16.838
   43ETHO   H1159835  17.968   4.041  16.883
   43ETHO   H1359836  17.940   4.215  16.845
   43ETHO    C259837  18.045   4.100  16.696
   43ETHO   H2159838  17.949   4.078  16.644
   43ETHO   H2359839  18.120   4.020  16.680
   44ETHO    O159840  18.097   4.207  16.620
   44ETHO    C159841  18.114   4.170  16.484
   44ETHO   H1159842  18.211   4.216  16.453
   44ETHO   H1359843  18.126   4.061  16.468
   44ETHO    C259844  18.020   4.231  16.376
   44ETHO   H2159845  17.921   4.181  16.381
   44ETHO   H2359846  18.067   4.205  16.279
   45ETHO    O159847  17.987   4.369  16.393
   45ETHO    C159848  18.009   4.449  16.280
   45ETHO   H1159849  17.964   4.410  16.186
   45ETHO   H1359850  18.120   4.447  16.274
   45ETHO    C259851  17.966   4.594  16.306
   45ETHO   H2159852  17.857   4.593  16.332
   45ETHO   H2359853  17.990   4.651  16.214
   46ETHO    O159854  18.034   4.654  16.416
   46ETHO    C159855  18.013   4.795  16.411
   46ETHO   H1159856  18.075   4.843  16.332
   46ETHO   H1359857  17.909   4.818  16.380
   46ETHO    C259858  18.063   4.863  16.543
   46ETHO   H2159859  18.079   4.968  16.510
   46ETHO   H2359860  18.168   4.828  16.560
   47ETHO    O159861  17.977   4.837  16.654
   47ETHO    C159862  18.032   4.883  16.777
   47ETHO   H1159863  18.046   4.993  16.789
   47ETHO   H1359864  18.129   4.829  16.785
   47ETHO    C259865  17.950   4.842  16.910
   47ETHO   H2159866  18.019   4.860  16.995
   47ETHO   H2359867  17.926   4.733  16.911
   48ETHO    O159868  17.834   4.926  16.922
   48ETHO    C159869  17.753   4.901  17.035
   48ETHO   H1159870  17.819   4.870  17.119
   48ETHO   H1359871  17.713   4.998  17.072
   48ETHO    C259872  17.637   4.801  17.003
   48ETHO   H2159873  17.590   4.763  17.096
   48ETHO   H2359874  17.556   4.844  16.940
   49ETHO    O159875  17.683   4.687  16.932
   49ETHO    C159876  17.579   4.623  16.857
   49ETHO   H1159877  17.547   4.703  16.787
   49ETHO   H1359878  17.499   4.599  16.930
   49ETHO    C259879  17.613   4.489  16.787
   49ETHO   H2159880  17.537   4.418  16.748
   49ETHO   H2359881  17.679   4.440  16.862
   50ETHO    O159882  17.702   4.522  16.687
   50ETHO    C159883  17.717   4.430  16.583
   50ETHO   H1159884  17.802   4.433  16.512
   50ETHO   H1359885  17.722   4.332  16.634
   50ETHO    C259886  17.604   4.432  16.487
   50ETHO   H2159887  17.500   4.426  16.525
   50ETHO   H2359888  17.615   4.341  16.425
   51ETHO    O159889  17.620   4.533  16.395
   51ETHO    C159890  17.551   4.652  16.434
   51ETHO   H1159891  17.590   4.674  16.536
   51ETHO   H1359892  17.444   4.627  16.452
   51ETHO    C259893  17.564   4.758  16.326
   51ETHO   H2159894  17.483   4.826  16.359
   51ETHO   H2359895  17.531   4.720  16.227
   52ETHO    O159896  17.678   4.838  16.318
   52ETHO    C159897  17.673   4.922  16.197
   52ETHO   H1159898  17.710   4.870  16.106
   52ETHO   H1359899  17.566   4.951  16.188
   52ETHO    C259900  17.747   5.044  16.221
   52ETHO   H2159901  17.699   5.080  16.314
   52ETHO   H2359902  17.718   5.117  16.142
   53ETHO    O159903  17.886   5.025  16.225
   53ETHO    C159904  17.956   5.144  16.263
   53ETHO   H1159905  17.921   5.228  16.198
   53ETHO   H1359906  17.932   5.165  16.369
   53ETHO    C259907  18.103   5.127  16.239
   53ETHO   H2159908  18.128   5.080  16.141
   53ETHO   H2359909  18.149   5.068  16.321
   54ETHO    O159910  18.184   5.244  16.246
   54ETHO    C159911  18.165   5.335  16.144
   54ETHO   H1159912  18.063   5.379  16.141
   54ETHO   H1359913  18.229   5.421  16.174
   54ETHO    C259914  18.231   5.296  16.007
   54ETHO   H2159915  18.253   5.397  15.966
   54ETHO   H2359916  18.158   5.236  15.948
   55ETHO    O159917  18.357   5.229  16.029
   55ETHO    C159918  18.441   5.204  15.916
   55ETHO   H1159919  18.379   5.154  15.839
   55ETHO   H1359920  18.477   5.302  15.877
   55ETHO    C259921  18.555   5.111  15.950
   55ETHO   H2159922  18.632   5.131  15.872
   55ETHO   H2359923  18.613   5.123  16.043
   56ETHO    O159924  18.501   4.981  15.945
   56ETHO    C159925  18.603   4.881  15.925
   56ETHO   H1159926  18.585   4.789  15.985
   56ETHO   H1359927  18.703   4.916  15.958
   56ETHO    C259928  18.614   4.842  15.774
   56ETHO   H2159929  18.712   4.791  15.761
   56ETHO   H2359930  18.602   4.934  15.713
   57ETHO    O159931  18.509   4.746  15.741
   57ETHO    C159932  18.522   4.690  15.611
   57ETHO   H1159933  18.506   4.767  15.533
   57ETHO   H1359934  18.623   4.646  15.602
   57ETHO    C259935  18.428   4.565  15.592
   57ETHO   H2159936  18.438   4.499  15.681
   57ETHO   H2359937  18.445   4.513  15.495
   58ETHO    O159938  18.292   4.613  15.583
   58ETHO    C159939  18.192   4.507  15.586
   58ETHO   H1159940  18.238   4.408  15.565
   58ETHO   H1359941  18.113   4.521  15.509
   58ETHO    C259942  18.140   4.502  15.728
   58ETHO   H2159943  18.044   4.445  15.725
   58ETHO   H2359944  18.112   4.598  15.776
   59ETHO    O159945  18.233   4.435  15.816
   59ETHO    C159946  18.183   4.416  15.946
   59ETHO   H1159947  18.164   4.504  16.011
   59ETHO   H1359948  18.088   4.359  15.941
   59ETHO    C259949  18.281   4.324  16.026
   59ETHO   H2159950  18.241   4.304  16.128
   59ETHO   H2359951  18.380   4.374  16.031
   60ETHO    O159952  18.285   4.197  15.966
   60ETHO    C159953  18.345   4.090  16.042
   60ETHO   H1159954  18.292   4.087  16.140
   60ETHO   H1359955  18.448   4.114  16.076
   60ETHO    C259956  18.344   3.963  15.961
   60ETHO   H2159957  18.244   3.920  15.940
   60ETHO   H2359958  18.390   3.887  16.028
   61ETHO    O159959  18.421   3.981  15.848
   61ETHO    C159960  18.463   3.859  15.791
   61ETHO   H1159961  18.568   3.832  15.814
   61ETHO   H1359962  18.391   3.778  15.815
   61ETHO    C259963  18.463   3.856  15.636
   61ETHO   H2159964  18.508   3.757  15.611
   61ETHO   H2359965  18.537   3.930  15.598
   62ETHO    O159966  18.331   3.861  15.585
   62ETHO    C159967  18.322   3.893  15.445
   62ETHO   H1159968  18.358   3.808  15.383
   62ETHO   H1359969  18.381   3.985  15.422
   62ETHO    C259970  18.178   3.917  15.405
   62ETHO   H2159971  18.178   3.980  15.314
   62ETHO   H2359972  18.132   3.985  15.481
   63ETHO    O159973  18.091   3.811  15.381
   63ETHO    C159974  17.976   3.864  15.320
   63ETHO   H1159975  17.966   3.973  15.339
   63ETHO   H1359976  17.987   3.862  15.209
   63ETHO    C259977  17.853   3.790  15.366
   63ETHO   H2159978  17.876   3.683  15.350
   63ETHO   H2359979  17.767   3.824  15.304
   64ETHO    O159980  17.832   3.798  15.508
   64ETHO    C159981  17.704   3.755  15.545
   64ETHO   H1159982  17.682   3.653  15.508
   64ETHO   H1359983  17.626   3.831  15.520
   64ETHO    C259984  17.710   3.733  15.701
   64ETHO   H2159985  17.805   3.690  15.739
   64ETHO   H2359986  17.639   3.651  15.724
   65ETHO    O159987  17.668   3.840  15.788
   65ETHO    C159988  17.674   3.802  15.923
   65ETHO   H1159989  17.621   3.706  15.939
   65ETHO   H1359990  17.779   3.779  15.952
   65ETHO    C259991  17.614   3.913  16.010
   65ETHO   H2159992  17.606   3.886  16.118
   65ETHO   H2359993  17.510   3.931  15.974
   66ETHO    O159994  17.689   4.034  16.008
   66ETHO    C159995  17.649   4.118  16.115
   66ETHO   H1159996  17.686   4.065  16.206
   66ETHO   H1359997  17.541   4.142  16.104
   66ETHO    C259998  17.709   4.266  16.115
   66ETHO   H2159999  17.819   4.247  16.118
   66ETHO   H2360000  17.677   4.319  16.207
   67ETHO    O160001  17.657   4.339  16.006
   67ETHO    C160002  17.697   4.479  16.028
   67ETHO   H1160003  17.670   4.527  16.124
   67ETHO   H1360004  17.808   4.479  16.033
   67ETHO    C260005  17.657   4.566  15.905
   67ETHO   H2160006  17.671   4.669  15.944
   67ETHO   H2360007  17.555   4.561  15.862
   68ETHO    O160008  17.753   4.541  15.810
   68ETHO    C160009  17.756   4.646  15.714
   68ETHO   H1160010  17.659   4.700  15.710
   68ETHO   H1360011  17.825   4.724  15.752
   68ETHO    C260012  17.796   4.596  15.575
   68ETHO   H2160013  17.884   4.528  15.575
   68ETHO   H2360014  17.828   4.684  15.516
   69ETHO    O160015  17.691   4.534  15.500
   69ETHO    C160016  17.739   4.466  15.384
   69ETHO   H1160017  17.820   4.515  15.326
   69ETHO   H1360018  17.783   4.377  15.433
   69ETHO    C260019  17.633   4.409  15.297
   69ETHO   H2160020  17.681   4.351  15.216
   69ETHO   H2360021  17.581   4.494  15.247
   70ETHO    O160022  17.541   4.323  15.371
   70ETHO    C160023  17.593   4.196  15.394
   70ETHO   H1160024  17.701   4.201  15.419
   70ETHO   H1360025  17.526   4.154  15.472
   70ETHO    C260026  17.578   4.101  15.270
   70ETHO   H2160027  17.478   4.121  15.226
   70ETHO   H2360028  17.569   3.997  15.310
   71ETHO    O160029  17.689   4.114  15.178
   71ETHO    C160030  17.689   4.010  15.075
   71ETHO   H1160031  17.594   4.022  15.020
   71ETHO   H1360032  17.689   3.908  15.118
   71ETHO    C260033  17.802   4.012  14.974
   71ETHO   H2160034  17.798   3.913  14.924
   71ETHO   H2360035  17.894   4.007  15.036
   72ETHO    O160036  17.780   4.110  14.869
   72ETHO    C160037  17.820   4.243  14.900
   72ETHO   H1160038  17.738   4.291  14.957
   72ETHO   H1360039  17.922   4.253  14.942
   72ETHO    C260040  17.827   4.328  14.766
   72ETHO   H2160041  17.880   4.274  14.684
   72ETHO   H2360042  17.876   4.425  14.791
   73ETHO    O160043  17.699   4.368  14.717
   73ETHO    C160044  17.718   4.468  14.613
   73ETHO   H1160045  17.784   4.552  14.642
   73ETHO   H1360046  17.618   4.513  14.599
   73ETHO    C260047  17.778   4.412  14.472
   73ETHO   H2160048  17.736   4.470  14.387
   73ETHO   H2360049  17.730   4.313  14.453
   74ETHO    O160050  17.920   4.394  14.471
   74ETHO    C160051  17.964   4.336  14.343
   74ETHO   H1160052  17.881   4.270  14.308
   74ETHO   H1360053  17.973   4.415  14.265
   74ETHO    C260054  18.093   4.263  14.361
   74ETHO   H2160055  18.124   4.223  14.263
   74ETHO   H2360056  18.071   4.184  14.436
   75ETHO    O160057  18.200   4.341  14.414
   75ETHO    C160058  18.246   4.441  14.315
   75ETHO   H1160059  18.206   4.542  14.337
   75ETHO   H1360060  18.208   4.428  14.211
   75ETHO    C260061  18.398   4.453  14.331
   75ETHO   H2160062  18.440   4.507  14.244
   75ETHO   H2360063  18.437   4.349  14.321
   76ETHO    O160064  18.445   4.520  14.447
   76ETHO    C160065  18.590   4.512  14.464
   76ETHO   H1160066  18.635   4.410  14.474
   76ETHO   H1360067  18.635   4.558  14.374
   76ETHO    C260068  18.634   4.586  14.590
   76ETHO   H2160069  18.733   4.541  14.612
   76ETHO   H2360070  18.558   4.558  14.666
   77ETHO    O160071  18.641   4.730  14.571
   77ETHO    C160072  18.687   4.792  14.690
   77ETHO   H1160073  18.797   4.798  14.682
   77ETHO   H1360074  18.647   4.745  14.783
   77ETHO    C260075  18.637   4.940  14.700
   77ETHO   H2160076  18.667   4.981  14.602
   77ETHO   H2360077  18.691   4.993  14.781
   78ETHO    O160078  18.499   4.949  14.732
   78ETHO    C160079  18.449   5.072  14.679
   78ETHO   H1160080  18.517   5.152  14.713
   78ETHO   H1360081  18.451   5.074  14.567
   78ETHO    C260082  18.305   5.109  14.734
   78ETHO   H2160083  18.237   5.023  14.715
   78ETHO   H2360084  18.273   5.189  14.664
   79ETHO    O160085  18.289   5.146  14.869
   79ETHO    C160086  18.158   5.203  14.878
   79ETHO   H1160087  18.150   5.287  14.806
   79ETHO   H1360088  18.087   5.121  14.857
   79ETHO    C260089  18.137   5.255  15.020
   79ETHO   H2160090  18.152   5.171  15.090
   79ETHO   H2360091  18.030   5.280  15.036
   80ETHO    O160092  18.228   5.354  15.071
   80ETHO    C160093  18.210   5.482  15.008
   80ETHO   H1160094  18.288   5.547  15.052
   80ETHO   H1360095  18.247   5.467  14.905
   80ETHO    C260096  18.074   5.549  15.031
   80ETHO   H2160097  17.997   5.490  14.977
   80ETHO   H2360098  18.078   5.654  14.995
   81ETHO    O160099  18.030   5.538  15.163
   81ETHO    C160100  17.933   5.632  15.208
   81ETHO   H1160101  17.968   5.734  15.181
   81ETHO   H1360102  17.834   5.610  15.162
   81ETHO    C260103  17.927   5.634  15.359
   81ETHO   H2160104  17.914   5.529  15.393
   81ETHO   H2360105  18.023   5.665  15.407
   82ETHO    O160106  17.831   5.727  15.398
   82ETHO    C160107  17.809   5.716  15.539
   82ETHO   H1160108  17.907   5.710  15.590
   82ETHO   H1360109  17.751   5.622  15.550
   82ETHO    C260110  17.735   5.838  15.601
   82ETHO   H2160111  17.687   5.808  15.697
   82ETHO   H2360112  17.657   5.853  15.523
   83ETHO    O160113  17.818   5.947  15.625
   83ETHO    C160114  17.897   6.001  15.514
   83ETHO   H1160115  17.979   5.929  15.492
   83ETHO   H1360116  17.837   6.014  15.422
   83ETHO    C260117  17.967   6.131  15.553
   83ETHO   H2160118  18.065   6.134  15.502
   83ETHO   H2360119  18.000   6.117  15.658
   84ETHO    O160120  17.895   6.251  15.526
   84ETHO    C160121  17.962   6.365  15.584
   84ETHO   H1160122  18.056   6.385  15.527
   84ETHO   H1360123  17.993   6.333  15.686
   84ETHO    C260124  17.887   6.495  15.578
   84ETHO   H2160125  17.916   6.566  15.658
   84ETHO   H2360126  17.782   6.467  15.602
   85ETHO    O160127  17.897   6.565  15.451
   85ETHO    C160128  17.999   6.665  15.461
   85ETHO   H1160129  17.960   6.741  15.533
   85ETHO   H1360130  18.086   6.613  15.506
   85ETHO    C260131  18.019   6.706  15.312
   85ETHO   H2160132  18.062   6.627  15.246
   85ETHO   H2360133  18.103   6.778  15.325
   86ETHO    O160134  17.907   6.766  15.244
   86ETHO    C160135  17.938   6.816  15.113
   86ETHO   H1160136  17.944   6.722  15.053
   86ETHO   H1360137  18.036   6.862  15.087
   86ETHO    C260138  17.823   6.910  15.061
   86ETHO   H2160139  17.730   6.850  15.054
   86ETHO   H2360140  17.845   6.942  14.957
   87ETHO    O160141  17.797   7.022  15.134
   87ETHO    C160142  17.907   7.106  15.161
   87ETHO   H1160143  17.973   7.074  15.245
   87ETHO   H1360144  17.975   7.118  15.074
   87ETHO    C260145  17.855   7.248  15.201
   87ETHO   H2160146  17.939   7.308  15.242
   87ETHO   H2360147  17.773   7.233  15.273
   88ETHO    O160148  17.807   7.325  15.083
   88ETHO    C160149  17.714   7.425  15.116
   88ETHO   H1160150  17.754   7.504  15.183
   88ETHO   H1360151  17.627   7.377  15.165
   88ETHO    C260152  17.673   7.500  14.990
   88ETHO   H2160153  17.748   7.549  14.924
   88ETHO   H2360154  17.616   7.588  15.026
   89ETHO    O160155  17.572   7.437  14.908
   89ETHO    C160156  17.569   7.504  14.782
   89ETHO   H1160157  17.577   7.614  14.795
   89ETHO   H1360158  17.656   7.467  14.725
   89ETHO    C260159  17.442   7.454  14.717
   89ETHO   H2160160  17.437   7.343  14.723
   89ETHO   H2360161  17.449   7.473  14.608
   90ETHO    O160162  17.323   7.511  14.764
   90ETHO    C160163  17.203   7.465  14.696
   90ETHO   H1160164  17.202   7.495  14.589
   90ETHO   H1360165  17.205   7.355  14.708
   90ETHO    C260166  17.077   7.520  14.766
   90ETHO   H2160167  17.084   7.500  14.875
   90ETHO   H2360168  16.987   7.464  14.733
   91ETHO    O160169  17.060   7.660  14.744
   91ETHO    C160170  16.970   7.715  14.842
   91ETHO   H1160171  17.005   7.678  14.941
   91ETHO   H1360172  16.980   7.824  14.823
   91ETHO    C260173  16.824   7.674  14.820
   91ETHO   H2160174  16.808   7.564  14.825
   91ETHO   H2360175  16.777   7.710  14.726
   92ETHO    O160176  16.738   7.731  14.914
   92ETHO    C160177  16.715   7.874  14.901
   92ETHO   H1160178  16.797   7.925  14.956
   92ETHO   H1360179  16.718   7.907  14.795
   92ETHO    C260180  16.590   7.914  14.967
   92ETHO   H2160181  16.580   8.025  14.978
   92ETHO   H2360182  16.588   7.879  15.072
   93ETHO    O160183  16.476   7.879  14.889
   93ETHO    C160184  16.363   7.947  14.938
   93ETHO   H1160185  16.375   8.056  14.922
   93ETHO   H1360186  16.343   7.931  15.046
   93ETHO    C260187  16.240   7.905  14.859
   93ETHO   H2160188  16.157   7.954  14.914
   93ETHO   H2360189  16.219   7.796  14.855
   94ETHO    O160190  16.234   7.943  14.719
   94ETHO    C160191  16.104   7.905  14.657
   94ETHO   H1160192  16.107   7.903  14.546
   94ETHO   H1360193  16.084   7.799  14.683
   94ETHO    C260194  15.982   7.993  14.694
   94ETHO   H2160195  15.982   8.013  14.803
   94ETHO   H2360196  15.895   7.933  14.659
   95ETHO    O160197  15.979   8.122  14.638
   95ETHO    C160198  15.866   8.205  14.679
   95ETHO   H1160199  15.877   8.313  14.657
   95ETHO   H1360200  15.852   8.202  14.789
   95ETHO    C260201  15.743   8.152  14.603
   95ETHO   H2160202  15.652   8.200  14.647
   95ETHO   H2360203  15.733   8.044  14.627
   96ETHO    O160204  15.749   8.183  14.462
   96ETHO    C160205  15.628   8.154  14.394
   96ETHO   H1160206  15.611   8.046  14.413
   96ETHO   H1360207  15.554   8.224  14.437
   96ETHO    C260208  15.636   8.165  14.237
   96ETHO   H2160209  15.551   8.108  14.194
   96ETHO   H2360210  15.736   8.121  14.220
   97ETHO    O160211  15.634   8.304  14.191
   97ETHO    C160212  15.628   8.317  14.056
   97ETHO   H1160213  15.527   8.299  14.013
   97ETHO   H1360214  15.680   8.226  14.021
   97ETHO    C260215  15.686   8.452  14.012
   97ETHO   H2160216  15.738   8.428  13.917
   97ETHO   H2360217  15.758   8.482  14.091
   98ETHO    O160218  15.584   8.542  13.993
   98ETHO    C160219  15.633   8.671  13.957
   98ETHO   H1160220  15.686   8.712  14.046
   98ETHO   H1360221  15.706   8.659  13.875
   98ETHO    C260222  15.521   8.765  13.913
   98ETHO   H2160223  15.565   8.865  13.892
   98ETHO   H2360224  15.437   8.777  13.985
   99ETHO    O160225  15.452   8.731  13.788
   99ETHO    C160226  15.355   8.836  13.773
   99ETHO   H1160227  15.402   8.924  13.725
   99ETHO   H1360228  15.292   8.854  13.863
   99ETHO    C260229  15.260   8.804  13.657
   99ETHO   H2160230  15.325   8.764  13.577
   99ETHO   H2360231  15.213   8.900  13.625
  100ETHO    O160232  15.160   8.704  13.695
  100ETHO    C160233  15.051   8.696  13.610
  100ETHO   H1160234  15.096   8.725  13.512
  100ETHO   H1360235  15.022   8.590  13.595
  100ETHO    C260236  14.941   8.779  13.669
  100ETHO   H2160237  14.941   8.752  13.777
  100ETHO   H2360238  14.843   8.760  13.621
  101PROX    O160239  14.977   8.903  13.633
  101PROX    C160240  14.928   9.002  13.729
  101PROX   H1160241  14.832   8.967  13.772
  101PROX   H1360242  14.998   9.011  13.815
  101PROX    C260243  14.904   9.147  13.675
  101PROX   H2160244  14.827   9.144  13.594
  101PROX    C360245  15.022   9.225  13.620
  101PROX   H3160246  15.011   9.335  13.616
  101PROX   H3260247  15.114   9.187  13.669
  101PROX   H3360248  15.033   9.203  13.511
  102PROX    O160249  14.837   9.220  13.776
  102PROX    C160250  14.784   9.346  13.732
  102PROX   H1160251  14.820   9.371  13.630
  102PROX   H1360252  14.674   9.348  13.717
  102PROX    C260253  14.835   9.453  13.838
  102PROX   H2160254  14.945   9.451  13.852
  102PROX    C360255  14.777   9.419  13.975
  102PROX   H3160256  14.814   9.323  14.018
  102PROX   H3260257  14.794   9.497  14.052
  102PROX   H3360258  14.666   9.414  13.977
  103PROX    O160259  14.785   9.582  13.788
  103PROX    C160260  14.877   9.669  13.725
  103PROX   H1160261  14.960   9.705  13.789
  103PROX   H1360262  14.919   9.606  13.643
  103PROX    C260263  14.802   9.790  13.658
  103PROX   H2160264  14.741   9.849  13.729
  103PROX    C360265  14.705   9.733  13.554
  103PROX   H3160266  14.658   9.814  13.494
  103PROX   H3260267  14.751   9.666  13.478
  103PROX   H3360268  14.620   9.678  13.600
  104PROX    O160269  14.886   9.879  13.590
  104PROX    C160270  14.970   9.958  13.669
  104PROX   H1160271  14.977  10.057  13.621
  104PROX   H1360272  14.941   9.965  13.776
  104PROX    C260273  15.116   9.915  13.665
  104PROX   H2160274  15.118   9.804  13.678
  104PROX    C360275  15.199   9.988  13.773
  104PROX   H3160276  15.200  10.098  13.760
  104PROX   H3260277  15.163   9.956  13.874
  104PROX   H3360278  15.300   9.943  13.774
  105PROX    O160279  15.176   9.944  13.535
  105PROX    C160280  15.119   9.869  13.422
  105PROX   H1160281  15.097   9.762  13.446
  105PROX   H1360282  15.017   9.905  13.398
  105PROX    C260283  15.206   9.878  13.293
  105PROX   H2160284  15.310   9.853  13.322
  105PROX    C360285  15.222  10.020  13.240
  105PROX   H3160286  15.299  10.024  13.160
  105PROX   H3260287  15.130  10.052  13.187
  105PROX   H3360288  15.253  10.083  13.326
  106PROX    O160289  15.151   9.787  13.196
  106PROX    C160290  15.247   9.703  13.142
  106PROX   H1160291  15.296   9.770  13.068
  106PROX   H1360292  15.325   9.673  13.215
  106PROX    C260293  15.183   9.579  13.087
  106PROX   H2160294  15.146   9.519  13.173
  106PROX    C360295  15.289   9.484  13.025
  106PROX   H3160296  15.375   9.489  13.095
  106PROX   H3260297  15.243   9.383  13.029
  106PROX   H3360298  15.320   9.514  12.923
  107PROX    O160299  15.088   9.623  12.990
  107PROX    C160300  14.987   9.528  12.961
  107PROX   H1160301  15.019   9.422  12.963
  107PROX   H1360302  14.900   9.546  13.027
  107PROX    C260303  14.935   9.558  12.817
  107PROX   H2160304  14.906   9.665  12.811
  107PROX    C360305  14.803   9.484  12.776
  107PROX   H3160306  14.726   9.480  12.856
  107PROX   H3260307  14.761   9.529  12.683
  107PROX   H3360308  14.822   9.376  12.756
  108PROX    O160309  15.030   9.518  12.726
  108PROX    C160310  15.121   9.620  12.686
  108PROX   H1160311  15.153   9.679  12.775
  108PROX   H1360312  15.214   9.575  12.645
  108PROX    C260313  15.066   9.708  12.569
  108PROX   H2160314  14.956   9.722  12.570
  108PROX    C360315  15.096   9.617  12.441
  108PROX   H3160316  15.057   9.674  12.354
  108PROX   H3260317  15.206   9.602  12.438
  108PROX   H3360318  15.040   9.522  12.442
  109PROX    O160319  15.132   9.840  12.560
  109PROX    C160320  15.103   9.927  12.677
  109PROX   H1160321  15.148   9.893  12.773
  109PROX   H1360322  15.160  10.019  12.651
  109PROX    C260323  14.949   9.966  12.694
  109PROX   H2160324  14.895   9.870  12.710
  109PROX    C360325  14.902  10.033  12.564
  109PROX   H3160326  14.966  10.124  12.561
  109PROX   H3260327  14.907   9.970  12.473
  109PROX   H3360328  14.800  10.076  12.568
  110PROX    O160329  14.942  10.055  12.802
  110PROX    C160330  14.809  10.070  12.856
  110PROX   H1160331  14.800  10.180  12.864
  110PROX   H1360332  14.729  10.022  12.796
  110PROX    C260333  14.807  10.033  13.009
  110PROX   H2160334  14.884  10.097  13.057
  110PROX    C360335  14.834   9.884  13.032
  110PROX   H3160336  14.944   9.882  13.016
  110PROX   H3260337  14.825   9.848  13.137
  110PROX   H3360338  14.780   9.813  12.966
  111PROX    O160339  14.685  10.079  13.077
  111PROX    C160340  14.695  10.099  13.215
  111PROX   H1160341  14.737  10.008  13.265
  111PROX   H1360342  14.775  10.173  13.234
  111PROX    C260343  14.565  10.155  13.279
  111PROX   H2160344  14.532  10.252  13.238
  111PROX    C360345  14.588  10.167  13.429
  111PROX   H3160346  14.487  10.172  13.475
  111PROX   H3260347  14.640  10.078  13.471
  111PROX   H3360348  14.647  10.258  13.452
  112PROX    O160349  14.464  10.059  13.254
  112PROX    C160350  14.384  10.092  13.132
  112PROX   H1160351  14.308  10.167  13.164
  112PROX   H1360352  14.444  10.135  13.049
  112PROX    C260353  14.311   9.968  13.078
  112PROX   H2160354  14.226   9.946  13.146
  112PROX    C360355  14.423   9.864  13.053
  112PROX   H3160356  14.372   9.780  13.001
  112PROX   H3260357  14.508   9.898  12.990
  112PROX   H3360358  14.469   9.837  13.151
  113PROX    O160359  14.243  10.010  12.961
  113PROX    C160360  14.168   9.905  12.902
  113PROX   H1160361  14.231   9.825  12.857
  113PROX   H1360362  14.104   9.862  12.981
  113PROX    C260363  14.070   9.957  12.790
  113PROX   H2160364  14.135  10.025  12.731
  113PROX    C360365  13.938  10.016  12.838
  113PROX   H3160366  13.879  10.060  12.755
  113PROX   H3260367  13.882   9.943  12.900
  113PROX   H3360368  13.962  10.094  12.914
  114PROX    O160369  14.020   9.849  12.710
  114PROX    C160370  14.122   9.804  12.606
  114PROX   H1160371  14.226   9.804  12.646
  114PROX   H1360372  14.103   9.702  12.568
  114PROX    C260373  14.110   9.885  12.470
  114PROX   H2160374  14.003   9.903  12.447
  114PROX    C360375  14.149   9.815  12.341
  114PROX   H3160376  14.258   9.805  12.328
  114PROX   H3260377  14.107   9.712  12.336
  114PROX   H3360378  14.104   9.860  12.250
  115PROX    O160379  14.191  10.004  12.477
  115PROX    C160380  14.146  10.108  12.390
  115PROX   H1160381  14.191  10.102  12.289
  115PROX   H1360382  14.036  10.093  12.375
  115PROX    C260383  14.174  10.250  12.450
  115PROX   H2160384  14.127  10.246  12.551
  115PROX    C360385  14.113  10.364  12.369
  115PROX   H3160386  14.117  10.468  12.409
  115PROX   H3260387  14.165  10.365  12.271
  115PROX   H3360388  14.006  10.337  12.360
  116PROX    O160389  14.308  10.284  12.447
  116PROX    C160390  14.353  10.382  12.541
  116PROX   H1160391  14.402  10.473  12.501
  116PROX   H1360392  14.270  10.430  12.597
  116PROX    C260393  14.444  10.307  12.640
  116PROX   H2160394  14.524  10.269  12.573
  116PROX    C360395  14.378  10.201  12.718
  116PROX   H3160396  14.460  10.138  12.758
  116PROX   H3260397  14.318  10.238  12.804
  116PROX   H3360398  14.321  10.138  12.647
  117PROX    O160399  14.496  10.407  12.723
  117PROX    C160400  14.614  10.361  12.795
  117PROX   H1160401  14.588  10.285  12.872
  117PROX   H1360402  14.676  10.310  12.719
  117PROX    C260403  14.690  10.475  12.853
  117PROX   H2160404  14.653  10.511  12.951
  117PROX    C360405  14.671  10.595  12.765
  117PROX   H3160406  14.714  10.570  12.666
  117PROX   H3260407  14.564  10.626  12.757
  117PROX   H3360408  14.731  10.682  12.800
  118PROX    O160409  14.828  10.444  12.882
  118PROX    C160410  14.884  10.515  12.988
  118PROX   H1160411  14.861  10.623  12.972
  118PROX   H1360412  14.833  10.477  13.079
  118PROX    C260413  15.031  10.486  12.981
  118PROX   H2160414  15.077  10.530  12.890
  118PROX    C360415  15.066  10.344  12.997
  118PROX   H3160416  15.014  10.285  13.076
  118PROX   H3260417  15.038  10.281  12.910
  118PROX   H3360418  15.175  10.328  13.015
  119PROX    O160419  15.089  10.542  13.093
  119PROX    C160420  15.084  10.682  13.097
  119PROX   H1160421  15.058  10.728  13.000
  119PROX   H1360422  15.015  10.713  13.178
  119PROX    C260423  15.223  10.739  13.128
  119PROX   H2160424  15.212  10.849  13.137
  119PROX    C360425  15.321  10.711  13.012
  119PROX   H3160426  15.425  10.700  13.049
  119PROX   H3260427  15.289  10.618  12.960
  119PROX   H3360428  15.315  10.800  12.945
  120PROX    O160429  15.278  10.687  13.246
  120PROX    C160430  15.251  10.747  13.372
  120PROX   H1160431  15.312  10.839  13.386
  120PROX   H1360432  15.142  10.771  13.372
  120PROX    C260433  15.283  10.656  13.492
  120PROX   H2160434  15.212  10.571  13.488
  120PROX    C360435  15.258  10.730  13.624
  120PROX   H3160436  15.158  10.778  13.620
  120PROX   H3260437  15.255  10.656  13.707
  120PROX   H3360438  15.322  10.814  13.659
  121PROX    O160439  15.421  10.609  13.479
  121PROX    C160440  15.449  10.487  13.548
  121PROX   H1160441  15.554  10.474  13.582
  121PROX   H1360442  15.394  10.478  13.644
  121PROX    C260443  15.418  10.372  13.452
  121PROX   H2160444  15.316  10.402  13.420
  121PROX    C360445  15.427  10.231  13.521
  121PROX   H3160446  15.521  10.231  13.580
  121PROX   H3260447  15.344  10.222  13.594
  121PROX   H3360448  15.435  10.145  13.451
  122PROX    O160449  15.503  10.384  13.341
  122PROX    C160450  15.437  10.360  13.217
  122PROX   H1160451  15.358  10.282  13.224
  122PROX   H1360452  15.404  10.455  13.170
  122PROX    C260453  15.544  10.294  13.123
  122PROX   H2160454  15.582  10.211  13.186
  122PROX    C360455  15.659  10.373  13.067
  122PROX   H3160456  15.694  10.457  13.132
  122PROX   H3260457  15.748  10.310  13.051
  122PROX   H3360458  15.625  10.419  12.972
  123PROX    O160459  15.468  10.229  13.022
  123PROX    C160460  15.548  10.126  12.956
  123PROX   H1160461  15.632  10.169  12.897
  123PROX   H1360462  15.591  10.056  13.031
  123PROX    C260463  15.461  10.047  12.852
  123PROX   H2160464  15.357  10.066  12.887
  123PROX    C360465  15.497   9.897  12.847
  123PROX   H3160466  15.603   9.883  12.819
  123PROX   H3260467  15.477   9.840  12.941
  123PROX   H3360468  15.434   9.840  12.775
  124PROX    O160469  15.484  10.095  12.724
  124PROX    C160470  15.403  10.211  12.699
  124PROX   H1160471  15.307  10.209  12.755
  124PROX   H1360472  15.464  10.302  12.714
  124PROX    C260473  15.365  10.214  12.551
  124PROX   H2160474  15.306  10.125  12.520
  124PROX    C360475  15.487  10.228  12.460
  124PROX   H3160476  15.564  10.305  12.483
  124PROX   H3260477  15.532  10.126  12.463
  124PROX   H3360478  15.445  10.243  12.358
  125PROX    O160479  15.278  10.322  12.539
  125PROX    C160480  15.178  10.302  12.436
  125PROX   H1160481  15.215  10.324  12.333
  125PROX   H1360482  15.134  10.201  12.444
  125PROX    C260483  15.061  10.405  12.446
  125PROX   H2160484  15.104  10.494  12.394
  125PROX    C360485  15.017  10.437  12.596
  125PROX   H3160486  14.987  10.347  12.654
  125PROX   H3260487  15.092  10.491  12.658
  125PROX   H3360488  14.923  10.492  12.581
  126PROX    O160489  14.956  10.349  12.373
  126PROX    C160490  14.851  10.439  12.326
  126PROX   H1160491  14.888  10.540  12.353
  126PROX   H1360492  14.848  10.432  12.215
  126PROX    C260493  14.710  10.401  12.384
  126PROX   H2160494  14.717  10.406  12.495
  126PROX    C360495  14.668  10.256  12.334
  126PROX   H3160496  14.564  10.225  12.361
  126PROX   H3260497  14.664  10.263  12.224
  126PROX   H3360498  14.738  10.176  12.366
  127PROX    O160499  14.610  10.491  12.332
  127PROX    C160500  14.619  10.617  12.397
  127PROX   H1160501  14.606  10.601  12.506
  127PROX   H1360502  14.718  10.659  12.368
  127PROX    C260503  14.519  10.720  12.334
  127PROX   H2160504  14.415  10.686  12.354
  127PROX    C360505  14.532  10.729  12.183
  127PROX   H3160506  14.489  10.645  12.125
  127PROX   H3260507  14.468  10.810  12.142
  127PROX   H3360508  14.640  10.746  12.162
  128PROX    O160509  14.540  10.852  12.386
  128PROX    C160510  14.482  10.868  12.522
  128PROX   H1160511  14.371  10.864  12.520
  128PROX   H1360512  14.524  10.787  12.584
  128PROX    C260513  14.524  11.006  12.574
  128PROX   H2160514  14.460  11.076  12.516
  128PROX    C360515  14.666  11.040  12.540
  128PROX   H3160516  14.692  11.130  12.600
  128PROX   H3260517  14.732  10.958  12.575
  128PROX   H3360518  14.691  11.057  12.433
  129PROX    O160519  14.493  11.013  12.714
  129PROX    C160520  14.594  10.963  12.795
  129PROX   H1160521  14.649  10.878  12.749
  129PROX   H1360522  14.666  11.044  12.818
  129PROX    C260523  14.546  10.910  12.933
  129PROX   H2160524  14.479  10.985  12.980
  129PROX    C360525  14.653  10.907  13.041
  129PROX   H3160526  14.710  10.995  13.077
  129PROX   H3260527  14.605  10.862  13.130
  129PROX   H3360528  14.731  10.831  13.018
  130PROX    O160529  14.461  10.797  12.907
  130PROX    C160530  14.370  10.774  13.021
  130PROX   H1160531  14.421  10.783  13.119
  130PROX   H1360532  14.288  10.848  13.013
  130PROX    C260533  14.308  10.633  13.020
  130PROX   H2160534  14.396  10.565  13.012
  130PROX    C360535  14.213  10.594  12.902
  130PROX   H3160536  14.128  10.665  12.909
  130PROX   H3260537  14.264  10.610  12.805
  130PROX   H3360538  14.184  10.488  12.919
  131PROX    O160539  14.248  10.602  13.146
  131PROX    C160540  14.137  10.686  13.185
  131PROX   H1160541  14.081  10.722  13.096
  131PROX   H1360542  14.066  10.612  13.228
  131PROX    C260543  14.169  10.789  13.288
  131PROX   H2160544  14.246  10.751  13.358
  131PROX    C360545  14.028  10.821  13.363
  131PROX   H3160546  14.040  10.847  13.471
  131PROX   H3260547  13.972  10.902  13.313
  131PROX   H3360548  13.965  10.731  13.351
  132PROX    O160549  14.209  10.911  13.230
  132PROX    C160550  14.278  10.993  13.314
  132PROX   H1160551  14.223  11.022  13.407
  132PROX   H1360552  14.367  10.939  13.353
  132PROX    C260553  14.311  11.120  13.242
  132PROX   H2160554  14.380  11.101  13.156
  132PROX    C360555  14.382  11.220  13.336
  132PROX   H3160556  14.484  11.183  13.360
  132PROX   H3260557  14.374  11.326  13.305
  132PROX   H3360558  14.315  11.218  13.425
  133PROX    O160559  14.191  11.178  13.194
  133PROX    C160560  14.206  11.249  13.073
  133PROX   H1160561  14.115  11.312  13.073
  133PROX   H1360562  14.297  11.311  13.086
  133PROX    C260563  14.190  11.150  12.962
  133PROX   H2160564  14.219  11.048  12.996
  133PROX    C360565  14.271  11.175  12.837
  133PROX   H3160566  14.260  11.086  12.772
  133PROX   H3260567  14.242  11.272  12.790
  133PROX   H3360568  14.378  11.188  12.860
  134PROX    O160569  14.054  11.140  12.913
  134PROX    C160570  13.980  11.055  12.998
  134PROX   H1160571  14.041  10.968  13.033
  134PROX   H1360572  13.942  11.102  13.091
  134PROX    C260573  13.859  10.999  12.924
  134PROX   H2160574  13.827  11.078  12.853
  134PROX    C360575  13.760  10.959  13.042
  134PROX   H3160576  13.657  10.938  13.006
  134PROX   H3260577  13.785  10.877  13.112
  134PROX   H3360578  13.748  11.056  13.094
  135PROX    O160579  13.909  10.898  12.836
  135PROX    C160580  13.808  10.840  12.762
  135PROX   H1160581  13.721  10.818  12.827
  135PROX   H1360582  13.782  10.898  12.671
  135PROX    C260583  13.871  10.708  12.716
  135PROX   H2160584  13.925  10.658  12.799
  135PROX    C360585  13.961  10.722  12.591
  135PROX   H3160586  14.049  10.780  12.625
  135PROX   H3260587  14.000  10.622  12.563
  135PROX   H3360588  13.913  10.766  12.501
  136PROX    O160589  13.774  10.610  12.675
  136PROX    C160590  13.742  10.513  12.776
  136PROX   H1160591  13.701  10.569  12.864
  136PROX   H1360592  13.652  10.452  12.752
  136PROX    C260593  13.863  10.409  12.802
  136PROX   H2160594  13.961  10.462  12.811
  136PROX    C360595  13.883  10.324  12.679
  136PROX   H3160596  13.790  10.265  12.663
  136PROX   H3260597  13.893  10.391  12.591
  136PROX   H3360598  13.972  10.261  12.702
  137PROX    O160599  13.836  10.328  12.922
  137PROX    C160600  13.848  10.403  13.035
  137PROX   H1160601  13.907  10.495  13.016
  137PROX   H1360602  13.744  10.430  13.063
  137PROX    C260603  13.907  10.317  13.145
  137PROX   H2160604  13.895  10.360  13.247
  137PROX    C360605  14.063  10.294  13.116
  137PROX   H3160606  14.114  10.390  13.140
  137PROX   H3260607  14.108  10.211  13.174
  137PROX   H3360608  14.072  10.271  13.007
  138PROX    O160609  13.837  10.198  13.157
  138PROX    C160610  13.895  10.109  13.254
  138PROX   H1160611  13.980  10.051  13.213
  138PROX   H1360612  13.923  10.164  13.347
  138PROX    C260613  13.793  10.005  13.308
  138PROX   H2160614  13.705  10.005  13.241
  138PROX    C360615  13.744  10.039  13.450
  138PROX   H3160616  13.828  10.052  13.522
  138PROX   H3260617  13.687  10.134  13.441
  138PROX   H3360618  13.680   9.958  13.491
  139PROX    O160619  13.845   9.874  13.297
  139PROX    C160620  13.836   9.813  13.169
  139PROX   H1160621  13.735   9.838  13.127
  139PROX   H1360622  13.926   9.836  13.108
  139PROX    C260623  13.848   9.662  13.178
  139PROX   H2160624  13.774   9.624  13.252
  139PROX    C360625  13.987   9.631  13.233
  139PROX   H3160626  14.015   9.663  13.336
  139PROX   H3260627  13.998   9.522  13.252
  139PROX   H3360628  14.066   9.675  13.168
  140PROX    O160629  13.813   9.597  13.057
  140PROX    C160630  13.890   9.627  12.945
  140PROX   H1160631  13.859   9.729  12.913
  140PROX   H1360632  13.999   9.627  12.967
  140PROX    C260633  13.864   9.533  12.822
  140PROX   H2160634  13.884   9.579  12.723
  140PROX    C360635  13.717   9.479  12.815
  140PROX   H3160636  13.682   9.419  12.901
  140PROX   H3260637  13.647   9.562  12.792
  140PROX   H3360638  13.719   9.407  12.731
  141PROX    O160639  13.961   9.423  12.826
  141PROX    C160640  13.943   9.324  12.927
  141PROX   H1160641  13.945   9.376  13.025
  141PROX   H1360642  13.849   9.265  12.923
  141PROX    C260643  14.057   9.230  12.917
  141PROX   H2160644  14.142   9.299  12.929
  141PROX    C360645  14.072   9.164  12.778
  141PROX   H3160646  14.076   9.226  12.687
  141PROX   H3260647  14.175   9.124  12.790
  141PROX   H3360648  14.001   9.080  12.763
  142PROX    O160649  14.047   9.133  13.018
  142PROX    C160650  14.173   9.104  13.070
  142PROX   H1160651  14.238   9.053  12.996
  142PROX   H1360652  14.227   9.195  13.102
  142PROX    C260653  14.167   9.003  13.193
  142PROX   H2160654  14.272   8.993  13.228
  142PROX    C360655  14.105   8.866  13.154
  142PROX   H3160656  14.141   8.792  13.228
  142PROX   H3260657  13.993   8.863  13.154
  142PROX   H3360658  14.135   8.835  13.052
  143PROX    O160659  14.081   9.051  13.301
  143PROX    C160660  14.120   9.175  13.364
  143PROX   H1160661  14.224   9.208  13.341
  143PROX   H1360662  14.068   9.258  13.311
  143PROX    C260663  14.094   9.175  13.512
  143PROX   H2160664  14.001   9.118  13.531
  143PROX    C360665  14.077   9.317  13.562
  143PROX   H3160666  14.178   9.361  13.568
  143PROX   H3260667  14.026   9.380  13.486
  143PROX   H3360668  14.019   9.317  13.657
  144PROX    O160669  14.208   9.118  13.580
  144PROX    C160670  14.197   8.978  13.584
  144PROX   H1160671  14.098   8.951  13.626
  144PROX   H1360672  14.198   8.939  13.480
  144PROX    C260673  14.316   8.917  13.663
  144PROX   H2160674  14.409   8.974  13.643
  144PROX    C360675  14.336   8.771  13.624
  144PROX   H3160676  14.239   8.717  13.626
  144PROX   H3260677  14.389   8.778  13.527
  144PROX   H3360678  14.408   8.734  13.701
  145PROX    O160679  14.282   8.899  13.805
  145PROX    C160680  14.256   9.027  13.875
  145PROX   H1160681  14.174   9.081  13.822
  145PROX   H1360682  14.220   9.010  13.979
  145PROX    C260683  14.375   9.122  13.870
  145PROX   H2160684  14.380   9.155  13.764
  145PROX    C360685  14.508   9.061  13.915
  145PROX   H3160686  14.508   9.047  14.025
  145PROX   H3260687  14.509   8.960  13.869
  145PROX   H3360688  14.583   9.131  13.871
  146PROX    O160689  14.358   9.235  13.950
  146PROX    C160690  14.265   9.322  13.882
  146PROX   H1160691  14.320   9.364  13.795
  146PROX   H1360692  14.170   9.280  13.842
  146PROX    C260693  14.221   9.434  13.980
  146PROX   H2160694  14.312   9.491  14.011
  146PROX    C360695  14.137   9.373  14.097
  146PROX   H3160696  14.052   9.311  14.060
  146PROX   H3260697  14.210   9.307  14.148
  146PROX   H3360698  14.107   9.452  14.169
  147PROX    O160699  14.129   9.523  13.911
  147PROX    C160700  14.165   9.662  13.916
  147PROX   H1160701  14.274   9.676  13.935
  147PROX   H1360702  14.129   9.715  13.826
  147PROX    C260703  14.089   9.732  14.034
  147PROX   H2160704  14.115   9.681  14.129
  147PROX    C360705  13.934   9.721  14.020
  147PROX   H3160706  13.894   9.776  14.108
  147PROX   H3260707  13.895   9.764  13.926
  147PROX   H3360708  13.909   9.613  14.029
  148PROX    O160709  14.136   9.865  14.038
  148PROX    C160710  14.114   9.924  14.165
  148PROX   H1160711  14.008   9.938  14.196
  148PROX   H1360712  14.167   9.877  14.251
  148PROX    C260713  14.137  10.079  14.153
  148PROX   H2160714  14.244  10.093  14.128
  148PROX    C360715  14.128  10.142  14.291
  148PROX   H3160716  14.023  10.176  14.302
  148PROX   H3260717  14.147  10.072  14.376
  148PROX   H3360718  14.187  10.234  14.307
  149PROX    O160719  14.048  10.134  14.056
  149PROX    C160720  14.114  10.156  13.926
  149PROX   H1160721  14.200  10.226  13.935
  149PROX   H1360722  14.145  10.068  13.866
  149PROX    C260723  14.021  10.227  13.833
  149PROX   H2160724  14.003  10.331  13.868
  149PROX    C360725  13.896  10.144  13.799
  149PROX   H3160726  13.833  10.195  13.723
  149PROX   H3260727  13.928  10.058  13.736
  149PROX   H3360728  13.836  10.096  13.880
  150PROX    O160729  14.093  10.238  13.703
  150PROX    C160730  14.037  10.333  13.610
  150PROX   H1160731  13.964  10.274  13.551
  150PROX   H1360732  13.982  10.407  13.672
  150PROX    C260733  14.147  10.400  13.518
  150PROX   H2160734  14.100  10.464  13.440
  150PROX    C360735  14.214  10.287  13.430
  150PROX   H3160736  14.279  10.336  13.354
  150PROX   H3260737  14.269  10.226  13.505
  150PROX   H3360738  14.143  10.222  13.376
  151PROX    O160739  14.248  10.449  13.598
  151PROX    C160740  14.214  10.579  13.642
  151PROX   H1160741  14.235  10.649  13.558
  151PROX   H1360742  14.107  10.585  13.667
  151PROX    C260743  14.291  10.623  13.772
  151PROX   H2160744  14.402  10.620  13.766
  151PROX    C360745  14.248  10.523  13.889
  151PROX   H3160746  14.140  10.501  13.895
  151PROX   H3260747  14.313  10.436  13.866
  151PROX   H3360748  14.290  10.556  13.986
  152PROX    O160749  14.251  10.752  13.811
  152PROX    C160750  14.348  10.830  13.876
  152PROX   H1160751  14.304  10.895  13.954
  152PROX   H1360752  14.428  10.768  13.923
  152PROX    C260753  14.420  10.921  13.773
  152PROX   H2160754  14.478  10.995  13.833
  152PROX    C360755  14.332  10.999  13.681
  152PROX   H3160756  14.251  10.932  13.646
  152PROX   H3260757  14.290  11.098  13.711
  152PROX   H3360758  14.382  11.014  13.583
  153PROX    O160759  14.503  10.835  13.687
  153PROX    C160760  14.634  10.843  13.730
  153PROX   H1160761  14.668  10.949  13.736
  153PROX   H1360762  14.641  10.792  13.829
  153PROX    C260763  14.729  10.770  13.633
  153PROX   H2160764  14.688  10.668  13.621
  153PROX    C360765  14.873  10.748  13.687
  153PROX   H3160766  14.911  10.828  13.754
  153PROX   H3260767  14.882  10.656  13.749
  153PROX   H3360768  14.940  10.739  13.599
  154PROX    O160769  14.750  10.832  13.506
  154PROX    C160770  14.668  10.766  13.409
  154PROX   H1160771  14.571  10.729  13.448
  154PROX   H1360772  14.648  10.839  13.327
  154PROX    C260773  14.730  10.647  13.336
  154PROX   H2160774  14.807  10.696  13.274
  154PROX    C360775  14.627  10.577  13.253
  154PROX   H3160776  14.665  10.481  13.212
  154PROX   H3260777  14.530  10.565  13.305
  154PROX   H3360778  14.602  10.637  13.163
  155PROX    O160779  14.785  10.553  13.428
  155PROX    C160780  14.879  10.468  13.365
  155PROX   H1160781  14.835  10.399  13.290
  155PROX   H1360782  14.940  10.534  13.300
  155PROX    C260783  14.962  10.386  13.466
  155PROX   H2160784  15.036  10.457  13.509
  155PROX    C360785  15.026  10.259  13.410
  155PROX   H3160786  15.086  10.297  13.324
  155PROX   H3260787  15.104  10.225  13.481
  155PROX   H3360788  14.953  10.177  13.394
  156PROX    O160789  14.872  10.323  13.555
  156PROX    C160790  14.897  10.350  13.692
  156PROX   H1160791  14.978  10.278  13.718
  156PROX   H1360792  14.920  10.456  13.717
  156PROX    C260793  14.762  10.318  13.766
  156PROX   H2160794  14.722  10.223  13.723
  156PROX    C360795  14.645  10.416  13.741
  156PROX   H3160796  14.676  10.506  13.798
  156PROX   H3260797  14.639  10.442  13.633
  156PROX   H3360798  14.546  10.375  13.769
  157PROX    O160799  14.792  10.313  13.908
  157PROX    C160800  14.743  10.195  13.972
  157PROX   H1160801  14.633  10.204  13.985
  157PROX   H1360802  14.769  10.104  13.913
  157PROX    C260803  14.799  10.171  14.111
  157PROX   H2160804  14.779  10.266  14.165
  157PROX    C360805  14.953  10.145  14.115
  157PROX   H3160806  14.999  10.234  14.067
  157PROX   H3260807  14.987  10.124  14.218
  157PROX   H3360808  14.988  10.065  14.046
  158PROX    O160809  14.736  10.064  14.185
  158PROX    C160810  14.745   9.933  14.122
  158PROX   H1160811  14.814   9.926  14.035
  158PROX   H1360812  14.769   9.860  14.203
  158PROX    C260813  14.608   9.887  14.073
  158PROX   H2160814  14.531   9.907  14.151
  158PROX    C360815  14.609   9.731  14.047
  158PROX   H3160816  14.676   9.681  14.120
  158PROX   H3260817  14.507   9.689  14.058
  158PROX   H3360818  14.657   9.714  13.948
  159PROX    O160819  14.569   9.962  13.953
  159PROX    C160820  14.449   9.919  13.895
  159PROX   H1160821  14.448   9.809  13.879
  159PROX   H1360822  14.357   9.951  13.948
  159PROX    C260823  14.448   9.970  13.747
  159PROX   H2160824  14.539   9.931  13.696
  159PROX    C360825  14.434  10.122  13.751
  159PROX   H3160826  14.476  10.163  13.845
  159PROX   H3260827  14.450  10.175  13.655
  159PROX   H3360828  14.323  10.136  13.757
  160PROX    O160829  14.334   9.918  13.677
  160PROX    C160830  14.357   9.931  13.535
  160PROX   H1160831  14.357  10.037  13.502
  160PROX   H1360832  14.448   9.879  13.500
  160PROX    C260833  14.236   9.850  13.466
  160PROX   H2160834  14.221   9.905  13.371
  160PROX    C360835  14.109   9.877  13.541
  160PROX   H3160836  14.016   9.846  13.489
  160PROX   H3260837  14.092   9.813  13.631
  160PROX   H3360838  14.097   9.984  13.566
  161PROX    O160839  14.256   9.711  13.447
  161PROX    C160840  14.307   9.678  13.319
  161PROX   H1160841  14.243   9.721  13.239
  161PROX   H1360842  14.404   9.733  13.316
  161PROX    C260843  14.337   9.532  13.300
  161PROX   H2160844  14.242   9.475  13.305
  161PROX    C360845  14.440   9.469  13.405
  161PROX   H3160846  14.458   9.371  13.357
  161PROX   H3260847  14.532   9.528  13.425
  161PROX   H3360848  14.375   9.462  13.496
  162PROX    O160849  14.396   9.516  13.174
  162PROX    C160850  14.304   9.504  13.067
  162PROX   H1160851  14.231   9.425  13.093
  162PROX   H1360852  14.246   9.599  13.061
  162PROX    C260853  14.372   9.485  12.931
  162PROX   H2160854  14.462   9.548  12.942
  162PROX    C360855  14.286   9.537  12.820
  162PROX   H3160856  14.262   9.645  12.835
  162PROX   H3260857  14.327   9.535  12.717
  162PROX   H3360858  14.181   9.500  12.818
  163PROX    O160859  14.388   9.352  12.907
  163PROX    C160860  14.490   9.295  12.988
  163PROX   H1160861  14.555   9.376  13.028
  163PROX   H1360862  14.450   9.251  13.081
  163PROX    C260863  14.588   9.210  12.908
  163PROX   H2160864  14.640   9.274  12.833
  163PROX    C360865  14.514   9.107  12.824
  163PROX   H3160866  14.477   9.013  12.871
  163PROX   H3260867  14.432   9.146  12.760
  163PROX   H3360868  14.591   9.069  12.754
  164PROX    O160869  14.675   9.143  13.000
  164PROX    C160870  14.773   9.224  13.068
  164PROX   H1160871  14.879   9.191  13.064
  164PROX   H1360872  14.768   9.321  13.013
  164PROX    C260873  14.737   9.260  13.215
  164PROX   H2160874  14.629   9.283  13.227
  164PROX    C360875  14.813   9.386  13.251
  164PROX   H3160876  14.921   9.366  13.233
  164PROX   H3260877  14.769   9.466  13.187
  164PROX   H3360878  14.797   9.416  13.357
  165PROX    O160879  14.774   9.164  13.314
  165PROX    C160880  14.701   9.033  13.300
  165PROX   H1160881  14.712   8.976  13.205
  165PROX   H1360882  14.761   8.963  13.363
  165PROX    C260883  14.560   9.033  13.350
  165PROX   H2160884  14.495   9.080  13.272
  165PROX    C360885  14.541   9.125  13.478
  165PROX   H3160886  14.433   9.133  13.503
  165PROX   H3260887  14.598   9.065  13.552
  165PROX   H3360888  14.584   9.227  13.465
  166ETHO    O160889  14.516   8.903  13.373
  166ETHO    C160890  14.500   8.817  13.260
  166ETHO   H1160891  14.513   8.886  13.174
  166ETHO   H1360892  14.393   8.786  13.257
  166ETHO    C260893  14.591   8.696  13.236
  166ETHO   H2160894  14.696   8.725  13.255
  166ETHO   H2360895  14.593   8.672  13.128
  167ETHO    O160896  14.546   8.587  13.314
  167ETHO    C160897  14.650   8.495  13.349
  167ETHO   H1160898  14.681   8.452  13.252
  167ETHO   H1360899  14.737   8.553  13.387
  167ETHO    C260900  14.612   8.387  13.455
  167ETHO   H2160901  14.653   8.288  13.428
  167ETHO   H2360902  14.502   8.379  13.446
  168ETHO    O160903  14.659   8.412  13.587
  168ETHO    C160904  14.613   8.524  13.646
  168ETHO   H1160905  14.503   8.507  13.642
  168ETHO   H1360906  14.619   8.615  13.582
  168ETHO    C260907  14.642   8.555  13.795
  168ETHO   H2160908  14.597   8.469  13.850
  168ETHO   H2360909  14.579   8.642  13.820
  169ETHO    O160910  14.775   8.582  13.837
  169ETHO    C160911  14.851   8.462  13.840
  169ETHO   H1160912  14.792   8.383  13.891
  169ETHO   H1360913  14.864   8.414  13.740
  169ETHO    C260914  14.981   8.469  13.922
  169ETHO   H2160915  15.055   8.539  13.877
  169ETHO   H2360916  15.021   8.366  13.937
  170ETHO    O160917  14.938   8.524  14.052
  170ETHO    C160918  15.047   8.531  14.145
  170ETHO   H1160919  15.137   8.552  14.084
  170ETHO   H1360920  15.067   8.439  14.203
  170ETHO    C260921  15.044   8.654  14.246
  170ETHO   H2160922  14.960   8.627  14.314
  170ETHO   H2360923  15.025   8.745  14.185
  171ETHO    O160924  15.175   8.660  14.312
  171ETHO    C160925  15.178   8.698  14.450
  171ETHO   H1160926  15.087   8.756  14.476
  171ETHO   H1360927  15.171   8.604  14.509
  171ETHO    C260928  15.301   8.767  14.494
  171ETHO   H2160929  15.293   8.806  14.598
  171ETHO   H2360930  15.304   8.855  14.426
  172ETHO    O160931  15.412   8.679  14.469
  172ETHO    C160932  15.487   8.716  14.359
  172ETHO   H1160933  15.506   8.825  14.346
  172ETHO   H1360934  15.438   8.685  14.264
  172ETHO    C260935  15.619   8.644  14.381
  172ETHO   H2160936  15.688   8.643  14.295
  172ETHO   H2360937  15.599   8.536  14.398
  173ETHO    O160938  15.697   8.700  14.484
  173ETHO    C160939  15.810   8.618  14.509
  173ETHO   H1160940  15.779   8.514  14.535
  173ETHO   H1360941  15.882   8.620  14.425
  173ETHO    C260942  15.885   8.677  14.631
  173ETHO   H2160943  15.971   8.617  14.667
  173ETHO   H2360944  15.930   8.767  14.583
  174ETHO    O160945  15.811   8.718  14.749
  174ETHO    C160946  15.883   8.824  14.822
  174ETHO   H1160947  15.991   8.805  14.804
  174ETHO   H1360948  15.848   8.917  14.771
  174ETHO    C260949  15.861   8.810  14.973
  174ETHO   H2160950  15.756   8.782  14.993
  174ETHO   H2360951  15.886   8.904  15.025
  175ETHO    O160952  15.939   8.704  15.009
  175ETHO    C160953  15.923   8.671  15.146
  175ETHO   H1160954  15.935   8.764  15.205
  175ETHO   H1360955  15.826   8.621  15.167
  175ETHO    C260956  16.044   8.589  15.189
  175ETHO   H2160957  16.137   8.648  15.176
  175ETHO   H2360958  16.042   8.495  15.131
  176ETHO    O160959  16.032   8.548  15.328
  176ETHO    C160960  16.132   8.449  15.374
  176ETHO   H1160961  16.111   8.345  15.340
  176ETHO   H1360962  16.233   8.486  15.347
  176ETHO    C260963  16.127   8.442  15.533
  176ETHO   H2160964  16.020   8.459  15.556
  176ETHO   H2360965  16.177   8.527  15.583
  177ETHO    O160966  16.158   8.311  15.575
  177ETHO    C160967  16.129   8.292  15.708
  177ETHO   H1160968  16.029   8.243  15.712
  177ETHO   H1360969  16.131   8.380  15.776
  177ETHO    C260970  16.225   8.189  15.763
  177ETHO   H2160971  16.210   8.174  15.872
  177ETHO   H2360972  16.329   8.219  15.738
  178ETHO    O160973  16.202   8.058  15.714
  178ETHO    C160974  16.312   7.976  15.744
  178ETHO   H1160975  16.403   8.015  15.692
  178ETHO   H1360976  16.339   7.969  15.851
  178ETHO    C260977  16.291   7.848  15.676
  178ETHO   H2160978  16.389   7.798  15.656
  178ETHO   H2360979  16.250   7.856  15.573
  179ETHO    O160980  16.204   7.761  15.753
  179ETHO    C160981  16.178   7.644  15.680
  179ETHO   H1160982  16.192   7.672  15.573
  179ETHO   H1360983  16.074   7.612  15.703
  179ETHO    C260984  16.276   7.526  15.699
  179ETHO   H2160985  16.286   7.511  15.808
  179ETHO   H2360986  16.371   7.565  15.656
  180ETHO    O160987  16.229   7.405  15.638
  180ETHO    C160988  16.319   7.351  15.553
  180ETHO   H1160989  16.332   7.412  15.461
  180ETHO   H1360990  16.418   7.335  15.602
  180ETHO    C260991  16.272   7.210  15.497
  180ETHO   H2160992  16.336   7.196  15.408
  180ETHO   H2360993  16.163   7.215  15.474
  181ETHO    O160994  16.320   7.111  15.585
  181ETHO    C160995  16.235   6.996  15.578
  181ETHO   H1160996  16.207   6.973  15.473
  181ETHO   H1360997  16.145   7.022  15.638
  181ETHO    C260998  16.289   6.869  15.643
  181ETHO   H2160999  16.370   6.824  15.581
  181ETHO   H2361000  16.200   6.802  15.643
  182ETHO    O161001  16.334   6.892  15.771
  182ETHO    C161002  16.351   6.769  15.846
  182ETHO   H1161003  16.271   6.696  15.823
  182ETHO   H1361004  16.448   6.721  15.821
  182ETHO    C261005  16.338   6.795  15.992
  182ETHO   H2161006  16.363   6.899  16.023
  182ETHO   H2361007  16.401   6.724  16.048
  183ETHO    O161008  16.206   6.768  16.043
  183ETHO    C161009  16.192   6.815  16.171
  183ETHO   H1161010  16.284   6.799  16.231
  183ETHO   H1361011  16.104   6.770  16.222
  183ETHO    C261012  16.169   6.973  16.179
  183ETHO   H2161013  16.101   6.994  16.264
  183ETHO   H2361014  16.116   7.012  16.089
  184ETHO    O161015  16.286   7.049  16.217
  184ETHO    C161016  16.256   7.184  16.251
  184ETHO   H1161017  16.230   7.239  16.158
  184ETHO   H1361018  16.167   7.191  16.318
  184ETHO    C261019  16.373   7.248  16.327
  184ETHO   H2161020  16.374   7.206  16.429
  184ETHO   H2361021  16.361   7.359  16.328
  185ETHO    O161022  16.495   7.222  16.254
  185ETHO    C161023  16.561   7.093  16.285
  185ETHO   H1161024  16.489   7.014  16.313
  185ETHO   H1361025  16.604   7.067  16.186
  185ETHO    C261026  16.663   7.120  16.396
  185ETHO   H2161027  16.674   7.024  16.451
  185ETHO   H2361028  16.621   7.186  16.475
  186ETHO    O161029  16.801   7.166  16.371
  186ETHO    C161030  16.856   7.178  16.504
  186ETHO   H1161031  16.798   7.249  16.566
  186ETHO   H1361032  16.859   7.079  16.555
  186ETHO    C261033  16.997   7.228  16.492
  186ETHO   H2161034  17.057   7.173  16.416
  186ETHO   H2361035  17.041   7.213  16.594
  187ETHO    O161036  16.993   7.370  16.459
  187ETHO    C161037  17.119   7.438  16.470
  187ETHO   H1161038  17.109   7.542  16.507
  187ETHO   H1361039  17.196   7.384  16.530
  187ETHO    C261040  17.181   7.457  16.329
  187ETHO   H2161041  17.210   7.360  16.281
  187ETHO   H2361042  17.274   7.516  16.343
  188ETHO    O161043  17.108   7.529  16.234
  188ETHO    C161044  17.184   7.562  16.123
  188ETHO   H1161045  17.214   7.463  16.082
  188ETHO   H1361046  17.278   7.616  16.146
  188ETHO    C261047  17.091   7.627  16.032
  188ETHO   H2161048  17.000   7.564  16.036
  188ETHO   H2361049  17.121   7.629  15.925
  189ETHO    O161050  17.051   7.760  16.070
  189ETHO    C161051  17.155   7.855  16.052
  189ETHO   H1161052  17.216   7.849  16.145
  189ETHO   H1361053  17.224   7.841  15.966
  189ETHO    C261054  17.087   7.997  16.029
  189ETHO   H2161055  17.152   8.068  16.084
  189ETHO   H2361056  16.987   8.004  16.075
  190ETHO    O161057  17.078   8.031  15.892
  190ETHO    C161058  17.025   8.162  15.868
  190ETHO   H1161059  17.074   8.230  15.941
  190ETHO   H1361060  16.918   8.162  15.899
  190ETHO    C261061  17.039   8.211  15.725
  190ETHO   H2161062  17.149   8.226  15.720
  190ETHO   H2361063  16.976   8.300  15.703
  191ETHO    O161064  17.000   8.117  15.629
  191ETHO    C161065  17.070   8.139  15.510
  191ETHO   H1161066  17.180   8.132  15.514
  191ETHO   H1361067  17.035   8.053  15.449
  191ETHO    C261068  17.021   8.255  15.429
  191ETHO   H2161069  16.911   8.262  15.417
  191ETHO   H2361070  17.053   8.233  15.325
  192ETHO    O161071  17.077   8.373  15.484
  192ETHO    C161072  17.017   8.487  15.430
  192ETHO   H1161073  16.907   8.478  15.426
  192ETHO   H1361074  17.040   8.481  15.322
  192ETHO    C261075  17.062   8.623  15.492
  192ETHO   H2161076  17.015   8.701  15.428
  192ETHO   H2361077  17.172   8.637  15.496
  193ETHO    O161078  17.017   8.643  15.626
  193ETHO    C161079  16.876   8.681  15.627
  193ETHO   H1161080  16.853   8.770  15.565
  193ETHO   H1361081  16.801   8.604  15.600
  193ETHO    C261082  16.850   8.733  15.772
  193ETHO   H2161083  16.760   8.798  15.770
  193ETHO   H2361084  16.942   8.786  15.807
  194ETHO    O161085  16.832   8.635  15.864
  194ETHO    C161086  16.774   8.680  15.986
  194ETHO   H1161087  16.681   8.734  15.958
  194ETHO   H1361088  16.841   8.751  16.039
  194ETHO    C261089  16.734   8.565  16.086
  194ETHO   H2161090  16.676   8.488  16.031
  194ETHO   H2361091  16.662   8.611  16.157
  195ETHO    O161092  16.841   8.501  16.147
  195ETHO    C161093  16.805   8.392  16.224
  195ETHO   H1161094  16.695   8.387  16.238
  195ETHO   H1361095  16.839   8.300  16.172
  195ETHO    C261096  16.883   8.400  16.352
  195ETHO   H2161097  16.857   8.315  16.417
  195ETHO   H2361098  16.852   8.480  16.422
  196ETHO    O161099  17.019   8.409  16.328
  196ETHO    C161100  17.090   8.417  16.455
  196ETHO   H1161101  17.055   8.517  16.490
  196ETHO   H1361102  17.052   8.342  16.527
  196ETHO    C261103  17.243   8.427  16.451
  196ETHO   H2161104  17.276   8.456  16.349
  196ETHO   H2361105  17.287   8.332  16.489
  197ETHO    O161106  17.287   8.534  16.535
  197ETHO    C161107  17.427   8.561  16.524
  197ETHO   H1161108  17.471   8.476  16.467
  197ETHO   H1361109  17.440   8.648  16.457
  197ETHO    C261110  17.483   8.595  16.657
  197ETHO   H2161111  17.442   8.688  16.701
  197ETHO   H2361112  17.593   8.614  16.658
  198ETHO    O161113  17.446   8.506  16.763
  198ETHO    C161114  17.510   8.381  16.740
  198ETHO   H1161115  17.445   8.321  16.671
  198ETHO   H1361116  17.614   8.389  16.701
  198ETHO    C261117  17.509   8.307  16.874
  198ETHO   H2161118  17.480   8.200  16.861
  198ETHO   H2361119  17.441   8.354  16.948
  199ETHO    O161120  17.638   8.290  16.931
  199ETHO    C161121  17.673   8.395  17.015
  199ETHO   H1161122  17.595   8.427  17.086
  199ETHO   H1361123  17.695   8.483  16.952
  199ETHO    C261124  17.804   8.367  17.093
  199ETHO   H2161125  17.787   8.274  17.151
  199ETHO   H2361126  17.811   8.445  17.172
  200ETHO    O161127  17.918   8.367  17.006
  200ETHO    C161128  17.972   8.495  16.972
  200ETHO   H1161129  17.902   8.561  16.918
  200ETHO   H1361130  18.002   8.553  17.062
  200ETHO    C261131  18.094   8.479  16.887
  200ETHO   H2161132  18.128   8.580  16.854
  200ETHO   H2361133  18.079   8.416  16.797
  201ETHO    O161134  18.200   8.416  16.965
  201ETHO    C161135  18.330   8.428  16.913
  201ETHO   H1161136  18.381   8.514  16.961
  201ETHO   H1361137  18.319   8.446  16.804
  201ETHO    C261138  18.414   8.302  16.930
  201ETHO   H2161139  18.503   8.313  16.865
  201ETHO   H2361140  18.361   8.218  16.880
  202ETHO    O161141  18.438   8.276  17.066
  202ETHO    C161142  18.577   8.256  17.083
  202ETHO   H1161143  18.632   8.333  17.027
  202ETHO   H1361144  18.604   8.288  17.186
  202ETHO    C261145  18.628   8.121  17.043
  202ETHO   H2161146  18.738   8.115  17.052
  202ETHO   H2361147  18.603   8.103  16.937
  203ETHO    O161148  18.571   8.032  17.134
  203ETHO    C161149  18.647   7.908  17.152
  203ETHO   H1161150  18.743   7.927  17.206
  203ETHO   H1361151  18.672   7.869  17.051
  203ETHO    C261152  18.569   7.806  17.240
  203ETHO   H2161153  18.480   7.771  17.185
  203ETHO   H2361154  18.541   7.846  17.340
  204ETHO    O161155  18.652   7.691  17.262
  204ETHO    C161156  18.582   7.594  17.337
  204ETHO   H1161157  18.527   7.640  17.422
  204ETHO   H1361158  18.512   7.546  17.266
  204ETHO    C261159  18.680   7.495  17.400
  204ETHO   H2161160  18.625   7.422  17.462
  204ETHO   H2361161  18.753   7.537  17.473
  205ETHO    O161162  18.762   7.431  17.302
  205ETHO    C161163  18.854   7.343  17.362
  205ETHO   H1161164  18.791   7.296  17.439
  205ETHO   H1361165  18.945   7.391  17.405
  205ETHO    C261166  18.909   7.236  17.271
  205ETHO   H2161167  18.821   7.178  17.235
  205ETHO   H2361168  18.973   7.164  17.326
  206ETHO    O161169  18.982   7.297  17.162
  206ETHO    C161170  19.022   7.200  17.078
  206ETHO   H1161171  19.089   7.131  17.132
  206ETHO   H1361172  18.926   7.157  17.041
  206ETHO    C261173  19.096   7.261  16.958
  206ETHO   H2161174  19.037   7.338  16.905
  206ETHO   H2361175  19.180   7.325  16.993
  207ETHO    O161176  19.133   7.159  16.860
  207ETHO    C161177  19.182   7.213  16.738
  207ETHO   H1161178  19.251   7.296  16.766
  207ETHO   H1361179  19.100   7.253  16.674
  207ETHO    C261180  19.271   7.103  16.665
  207ETHO   H2161181  19.291   7.147  16.564
  207ETHO   H2361182  19.212   7.012  16.642
  208ETHO    O161183  19.393   7.067  16.719
  208ETHO    C161184  19.377   7.009  16.850
  208ETHO   H1161185  19.359   7.079  16.935
  208ETHO   H1361186  19.286   6.944  16.849
  208ETHO    C261187  19.492   6.920  16.897
  208ETHO   H2161188  19.514   6.836  16.827
  208ETHO   H2361189  19.459   6.872  16.992
  209ETHO    O161190  19.614   6.985  16.920
  209ETHO    C161191  19.694   7.008  16.814
  209ETHO   H1161192  19.763   7.092  16.836
  209ETHO   H1361193  19.639   7.044  16.724
  209ETHO    C261194  19.771   6.884  16.782
  209ETHO   H2161195  19.704   6.816  16.725
  209ETHO   H2361196  19.794   6.836  16.879
  210ETHO    O161197  19.907   6.895  16.720
  210ETHO    C161198  19.896   6.957  16.594
  210ETHO   H1161199  19.813   6.911  16.536
  210ETHO   H1361200  19.871   7.064  16.610
  210ETHO    C261201  20.025   6.950  16.506
  210ETHO   H2161202  20.014   6.996  16.406
  210ETHO   H2361203  20.046   6.842  16.495
  211ETHO    O161204  20.147   6.997  16.571
  211ETHO    C161205  20.244   7.055  16.482
  211ETHO   H1161206  20.198   7.132  16.417
  211ETHO   H1361207  20.320   7.095  16.553
  211ETHO    C261208  20.326   6.958  16.393
  211ETHO   H2161209  20.371   6.881  16.459
  211ETHO   H2361210  20.410   7.016  16.350
  212ETHO    O161211  20.244   6.894  16.288
  212ETHO    C161212  20.226   6.980  16.168
  212ETHO   H1161213  20.185   7.074  16.209
  212ETHO   H1361214  20.321   7.005  16.117
  212ETHO    C261215  20.107   6.918  16.084
  212ETHO   H2161216  20.129   6.810  16.093
  212ETHO   H2361217  20.102   6.942  15.975
  213ETHO    O161218  19.975   6.945  16.139
  213ETHO    C161219  19.875   6.852  16.086
  213ETHO   H1161220  19.820   6.884  15.995
  213ETHO   H1361221  19.928   6.759  16.056
  213ETHO    C261222  19.772   6.819  16.194
  213ETHO   H2161223  19.833   6.822  16.288
  213ETHO   H2361224  19.735   6.715  16.184
  214ETHO    O161225  19.675   6.921  16.182
  214ETHO    C161226  19.582   6.907  16.287
  214ETHO   H1161227  19.644   6.949  16.368
  214ETHO   H1361228  19.565   6.801  16.313
  214ETHO    C261229  19.458   6.990  16.268
  214ETHO   H2161230  19.477   7.098  16.249
  214ETHO   H2361231  19.398   6.973  16.360
  215ETHO    O161232  19.390   6.945  16.152
  215ETHO    C161233  19.265   7.009  16.139
  215ETHO   H1161234  19.193   6.973  16.216
  215ETHO   H1361235  19.294   7.114  16.161
  215ETHO    C261236  19.204   6.980  16.003
  215ETHO   H2161237  19.094   6.965  16.012
  215ETHO   H2361238  19.238   6.887  15.952
  216ETHO    O161239  19.228   7.092  15.919
  216ETHO    C161240  19.156   7.077  15.802
  216ETHO   H1161241  19.054   7.035  15.816
  216ETHO   H1361242  19.207   7.016  15.725
  216ETHO    C261243  19.128   7.207  15.723
  216ETHO   H2161244  19.085   7.182  15.624
  216ETHO   H2361245  19.226   7.260  15.721
  217ETHO    O161246  19.048   7.302  15.802
  217ETHO    C161247  19.035   7.425  15.726
  217ETHO   H1161248  19.136   7.469  15.710
  217ETHO   H1361249  18.992   7.408  15.625
  217ETHO    C261250  18.965   7.536  15.804
  217ETHO   H2161251  18.993   7.627  15.748
  217ETHO   H2361252  18.997   7.531  15.911
  218ETHO    O161253  18.822   7.518  15.795
  218ETHO    C161254  18.756   7.633  15.848
  218ETHO   H1161255  18.788   7.720  15.786
  218ETHO   H1361256  18.808   7.651  15.945
  218ETHO    C261257  18.602   7.626  15.853
  218ETHO   H2161258  18.576   7.561  15.766
  218ETHO   H2361259  18.563   7.730  15.848
  219ETHO    O161260  18.555   7.553  15.961
  219ETHO    C161261  18.448   7.616  16.018
  219ETHO   H1161262  18.477   7.711  16.068
  219ETHO   H1361263  18.363   7.633  15.948
  219ETHO    C261264  18.388   7.547  16.140
  219ETHO   H2161265  18.360   7.442  16.117
  219ETHO   H2361266  18.303   7.611  16.171
  220ETHO    O161267  18.483   7.542  16.240
  220ETHO    C161268  18.435   7.466  16.350
  220ETHO   H1161269  18.382   7.370  16.331
  220ETHO   H1361270  18.359   7.528  16.402
  220ETHO    C261271  18.553   7.440  16.443
  220ETHO   H2161272  18.507   7.393  16.533
  220ETHO   H2361273  18.601   7.535  16.476
  221ETHO    O161274  18.644   7.349  16.378
  221ETHO    C161275  18.766   7.326  16.456
  221ETHO   H1161276  18.842   7.292  16.383
  221ETHO   H1361277  18.796   7.429  16.485
  221ETHO    C261278  18.756   7.236  16.576
  221ETHO   H2161279  18.860   7.196  16.584
  221ETHO   H2361280  18.697   7.146  16.548
  222ETHO    O161281  18.718   7.297  16.698
  222ETHO    C161282  18.726   7.203  16.804
  222ETHO   H1161283  18.655   7.121  16.778
  222ETHO   H1361284  18.831   7.170  16.814
  222ETHO    C261285  18.669   7.280  16.925
  222ETHO   H2161286  18.726   7.369  16.958
  222ETHO   H2361287  18.671   7.202  17.004
  223ETHO    O161288  18.532   7.318  16.907
  223ETHO    C161289  18.478   7.386  17.019
  223ETHO   H1161290  18.524   7.343  17.110
  223ETHO   H1361291  18.530   7.484  17.019
  223ETHO    C261292  18.331   7.430  17.009
  223ETHO   H2161293  18.330   7.490  16.915
  223ETHO   H2361294  18.311   7.507  17.087
  224ETHO    O161295  18.245   7.315  17.000
  224ETHO    C161296  18.122   7.346  16.935
  224ETHO   H1161297  18.040   7.376  17.003
  224ETHO   H1361298  18.117   7.422  16.854
  224ETHO    C261299  18.060   7.219  16.868
  224ETHO   H2161300  17.969   7.224  16.805
  224ETHO   H2361301  18.056   7.155  16.959
  225ETHO    O161302  18.148   7.160  16.768
  225ETHO    C161303  18.105   7.036  16.724
  225ETHO   H1161304  18.006   7.053  16.677
  225ETHO   H1361305  18.092   6.958  16.802
  225ETHO    C261306  18.211   6.987  16.618
  225ETHO   H2161307  18.201   6.877  16.608
  225ETHO   H2361308  18.316   7.006  16.650
  226ETHO    O161309  18.205   7.052  16.491
  226ETHO    C161310  18.319   7.025  16.404
  226ETHO   H1161311  18.388   7.104  16.441
  226ETHO   H1361312  18.353   6.923  16.429
  226ETHO    C261313  18.281   7.016  16.257
  226ETHO   H2161314  18.186   6.958  16.260
  226ETHO   H2361315  18.347   6.964  16.185
  227ETHO    O161316  18.263   7.144  16.195
  227ETHO    C161317  18.168   7.135  16.085
  227ETHO   H1161318  18.067   7.114  16.126
  227ETHO   H1361319  18.207   7.059  16.014
  227ETHO    C261320  18.138   7.271  16.017
  227ETHO   H2161321  18.076   7.237  15.930
  227ETHO   H2361322  18.236   7.306  15.978
  228ETHO    O161323  18.077   7.367  16.101
  228ETHO    C161324  18.051   7.484  16.026
  228ETHO   H1161325  18.147   7.534  16.004
  228ETHO   H1361326  18.002   7.443  15.934
  228ETHO    C261327  17.945   7.582  16.080
  228ETHO   H2161328  17.871   7.544  16.154
  228ETHO   H2361329  17.878   7.616  15.998
  229ETHO    O161330  18.014   7.692  16.127
  229ETHO    C161331  18.033   7.684  16.270
  229ETHO   H1161332  18.095   7.595  16.294
  229ETHO   H1361333  17.938   7.663  16.325
  229ETHO    C261334  18.101   7.813  16.310
  229ETHO   H2161335  18.082   7.837  16.417
  229ETHO   H2361336  18.052   7.898  16.257
  230ETHO    O161337  18.241   7.822  16.273
  230ETHO    C161338  18.302   7.949  16.296
  230ETHO   H1161339  18.252   8.008  16.375
  230ETHO   H1361340  18.410   7.931  16.314
  230ETHO    C261341  18.289   8.040  16.171
  230ETHO   H2161342  18.317   7.982  16.080
  230ETHO   H2361343  18.358   8.126  16.170
  231ETHO    O161344  18.164   8.095  16.161
  231ETHO    C161345  18.129   8.126  16.024
  231ETHO   H1161346  18.090   8.029  15.986
  231ETHO   H1361347  18.218   8.154  15.964
  231ETHO    C261348  18.038   8.246  16.013
  231ETHO   H2161349  18.071   8.300  15.921
  231ETHO   H2361350  18.064   8.307  16.102
  232ETHO    O161351  17.898   8.221  16.021
  232ETHO    C161352  17.820   8.344  16.025
  232ETHO   H1161353  17.850   8.393  16.120
  232ETHO   H1361354  17.841   8.414  15.941
  232ETHO    C261355  17.669   8.311  16.034
  232ETHO   H2161356  17.596   8.394  16.028
  232ETHO   H2361357  17.643   8.259  16.129
  233ETHO    O161358  17.644   8.231  15.922
  233ETHO    C161359  17.511   8.183  15.916
  233ETHO   H1161360  17.470   8.143  16.011
  233ETHO   H1361361  17.446   8.272  15.897
  233ETHO    C261362  17.479   8.074  15.814
  233ETHO   H2161363  17.490   8.112  15.710
  233ETHO   H2361364  17.370   8.053  15.815
  234ETHO    O161365  17.557   7.952  15.836
  234ETHO    C161366  17.541   7.842  15.749
  234ETHO   H1161367  17.433   7.841  15.721
  234ETHO   H1361368  17.597   7.855  15.654
  234ETHO    C261369  17.597   7.713  15.812
  234ETHO   H2161370  17.706   7.725  15.829
  234ETHO   H2361371  17.592   7.631  15.737
  235ETHO    O161372  17.529   7.677  15.934
  235ETHO    C161373  17.544   7.540  15.954
  235ETHO   H1161374  17.455   7.501  15.901
  235ETHO   H1361375  17.637   7.505  15.904
  235ETHO    C261376  17.550   7.515  16.102
  235ETHO   H2161377  17.449   7.475  16.124
  235ETHO   H2361378  17.576   7.602  16.165
  236ETHO    O161379  17.648   7.411  16.120
  236ETHO    C161380  17.645   7.360  16.253
  236ETHO   H1161381  17.555   7.295  16.248
  236ETHO   H1361382  17.622   7.432  16.334
  236ETHO    C261383  17.785   7.290  16.274
  236ETHO   H2161384  17.844   7.362  16.336
  236ETHO   H2361385  17.840   7.270  16.180
  237ETHO    O161386  17.767   7.159  16.335
  237ETHO    C161387  17.874   7.075  16.308
  237ETHO   H1161388  17.867   7.039  16.203
  237ETHO   H1361389  17.976   7.120  16.306
  237ETHO    C261390  17.882   6.957  16.401
  237ETHO   H2161391  17.892   7.002  16.503
  237ETHO   H2361392  17.965   6.890  16.369
  238ETHO    O161393  17.768   6.878  16.406
  238ETHO    C161394  17.753   6.816  16.535
  238ETHO   H1161395  17.653   6.768  16.541
  238ETHO   H1361396  17.740   6.904  16.602
  238ETHO    C261397  17.857   6.709  16.576
  238ETHO   H2161398  17.854   6.701  16.687
  238ETHO   H2361399  17.961   6.739  16.550
  239ETHO    O161400  17.823   6.584  16.518
  239ETHO    C161401  17.919   6.485  16.553
  239ETHO   H1161402  18.019   6.523  16.525
  239ETHO   H1361403  17.929   6.468  16.662
  239ETHO    C261404  17.900   6.350  16.485
  239ETHO   H2161405  17.956   6.271  16.538
  239ETHO   H2361406  17.793   6.328  16.505
  240ETHO    O161407  17.936   6.356  16.351
  240ETHO    C161408  17.853   6.270  16.282
  240ETHO   H1161409  17.751   6.315  16.281
  240ETHO   H1361410  17.850   6.178  16.343
  240ETHO    C261411  17.902   6.233  16.140
  240ETHO   H2161412  17.943   6.323  16.091
  240ETHO   H2361413  17.818   6.206  16.073
  241ETHO    O161414  18.004   6.138  16.144
  241ETHO    C161415  18.036   6.105  16.007
  241ETHO   H1161416  17.951   6.115  15.936
  241ETHO   H1361417  18.112   6.176  15.968
  241ETHO    C261418  18.079   5.958  15.983
  241ETHO   H2161419  18.151   5.936  16.065
  241ETHO   H2361420  18.137   5.957  15.889
  242ETHO    O161421  17.967   5.872  15.976
  242ETHO    C161422  17.999   5.737  15.954
  242ETHO   H1161423  17.907   5.673  15.954
  242ETHO   H1361424  18.045   5.697  16.047
  242ETHO    C261425  18.090   5.718  15.834
  242ETHO   H2161426  18.068   5.784  15.747
  242ETHO   H2361427  18.059   5.616  15.802
  243ETHO    O161428  18.229   5.715  15.870
  243ETHO    C161429  18.314   5.764  15.769
  243ETHO   H1161430  18.351   5.695  15.689
  243ETHO   H1361431  18.264   5.846  15.715
  243ETHO    C261432  18.438   5.825  15.836
  243ETHO   H2161433  18.416   5.887  15.925
  243ETHO   H2361434  18.495   5.875  15.754
  244ETHO    O161435  18.532   5.719  15.857
  244ETHO    C161436  18.492   5.618  15.948
  244ETHO   H1161437  18.435   5.542  15.889
  244ETHO   H1361438  18.435   5.661  16.033
  244ETHO    C261439  18.616   5.547  16.006
  244ETHO   H2161440  18.574   5.468  16.072
  244ETHO   H2361441  18.679   5.613  16.068
  245ETHO    O161442  18.682   5.475  15.908
  245ETHO    C161443  18.808   5.426  15.951
  245ETHO   H1161444  18.869   5.499  16.006
  245ETHO   H1361445  18.785   5.345  16.023
  245ETHO    C261446  18.887   5.371  15.826
  245ETHO   H2161447  18.994   5.371  15.855
  245ETHO   H2361448  18.869   5.440  15.740
  246ETHO    O161449  18.858   5.234  15.804
  246ETHO    C161450  18.947   5.176  15.717
  246ETHO   H1161451  19.050   5.184  15.758
  246ETHO   H1361452  18.938   5.237  15.625
  246ETHO    C261453  18.903   5.032  15.692
  246ETHO   H2161454  18.958   4.994  15.604
  246ETHO   H2361455  18.798   5.045  15.656
  247ETHO    O161456  18.901   4.944  15.799
  247ETHO    C161457  19.020   4.901  15.843
  247ETHO   H1161458  19.060   4.820  15.779
  247ETHO   H1361459  19.096   4.981  15.847
  247ETHO    C261460  18.982   4.856  15.982
  247ETHO   H2161461  19.078   4.837  16.034
  247ETHO   H2361462  18.931   4.942  16.032
  248ETHO    O161463  18.911   4.736  15.978
  248ETHO    C161464  18.880   4.687  16.109
  248ETHO   H1161465  18.984   4.669  16.143
  248ETHO   H1361466  18.838   4.759  16.182
  248ETHO    C261467  18.788   4.562  16.099
  248ETHO   H2161468  18.705   4.567  16.026
  248ETHO   H2361469  18.746   4.537  16.199
  249ETHO    O161470  18.871   4.448  16.066
  249ETHO    C161471  18.805   4.325  16.090
  249ETHO   H1161472  18.889   4.252  16.087
  249ETHO   H1361473  18.771   4.313  16.194
  249ETHO    C261474  18.682   4.279  16.007
  249ETHO   H2161475  18.613   4.366  16.010
  249ETHO   H2361476  18.627   4.197  16.057
  250ETHO    O161477  18.717   4.244  15.880
  250ETHO    C161478  18.607   4.236  15.799
  250ETHO   H1161479  18.531   4.167  15.842
  250ETHO   H1361480  18.556   4.335  15.790
  250ETHO    C261481  18.646   4.183  15.664
  250ETHO   H2161482  18.553   4.139  15.622
  250ETHO   H2361483  18.720   4.100  15.675
  251ETHO    O161484  18.702   4.281  15.573
  251ETHO    C161485  18.715   4.241  15.441
  251ETHO   H1161486  18.614   4.217  15.403
  251ETHO   H1361487  18.765   4.142  15.449
  251ETHO    C261488  18.800   4.346  15.362
  251ETHO   H2161489  18.780   4.450  15.396
  251ETHO   H2361490  18.767   4.343  15.256
  252ETHO    O161491  18.938   4.316  15.368
  252ETHO    C161492  19.017   4.408  15.292
  252ETHO   H1161493  19.020   4.369  15.188
  252ETHO   H1361494  18.977   4.511  15.297
  252ETHO    C261495  19.165   4.413  15.332
  252ETHO   H2161496  19.233   4.424  15.245
  252ETHO   H2361497  19.196   4.324  15.390
  253ETHO    O161498  19.175   4.536  15.406
  253ETHO    C161499  19.299   4.550  15.462
  253ETHO   H1161500  19.365   4.546  15.372
  253ETHO   H1361501  19.319   4.464  15.530
  253ETHO    C261502  19.339   4.681  15.522
  253ETHO   H2161503  19.449   4.676  15.533
  253ETHO   H2361504  19.290   4.687  15.622
  254ETHO    O161505  19.302   4.794  15.443
  254ETHO    C161506  19.324   4.900  15.526
  254ETHO   H1161507  19.249   4.907  15.608
  254ETHO   H1361508  19.430   4.893  15.558
  254ETHO    C261509  19.292   5.023  15.428
  254ETHO   H2161510  19.366   5.027  15.345
  254ETHO   H2361511  19.311   5.114  15.489
  255ETHO    O161512  19.154   5.023  15.384
  255ETHO    C161513  19.094   5.152  15.370
  255ETHO   H1161514  19.169   5.233  15.352
  255ETHO   H1361515  19.055   5.169  15.472
  255ETHO    C261516  18.962   5.141  15.295
  255ETHO   H2161517  18.888   5.075  15.344
  255ETHO   H2361518  19.002   5.114  15.195
  256ETHO    O161519  18.906   5.268  15.277
  256ETHO    C161520  18.787   5.267  15.193
  256ETHO   H1161521  18.810   5.232  15.090
  256ETHO   H1361522  18.714   5.198  15.240
  256ETHO    C261523  18.718   5.404  15.174
  256ETHO   H2161524  18.679   5.436  15.273
  256ETHO   H2361525  18.636   5.395  15.099
  257ETHO    O161526  18.807   5.505  15.127
  257ETHO    C161527  18.759   5.634  15.137
  257ETHO   H1161528  18.720   5.660  15.238
  257ETHO   H1361529  18.672   5.649  15.070
  257ETHO    C261530  18.866   5.741  15.117
  257ETHO   H2161531  18.952   5.728  15.186
  257ETHO   H2361532  18.827   5.838  15.155
  258ETHO    O161533  18.899   5.757  14.981
  258ETHO    C161534  18.943   5.891  14.942
  258ETHO   H1161535  18.927   5.902  14.832
  258ETHO   H1361536  18.899   5.976  14.998
  258ETHO    C261537  19.096   5.908  14.962
  258ETHO   H2161538  19.127   5.896  15.068
  258ETHO   H2361539  19.115   6.009  14.921
  259ETHO    O161540  19.173   5.826  14.874
  259ETHO    C161541  19.310   5.847  14.883
  259ETHO   H1161542  19.358   5.813  14.789
  259ETHO   H1361543  19.334   5.956  14.889
  259ETHO    C261544  19.379   5.766  14.995
  259ETHO   H2161545  19.325   5.780  15.091
  259ETHO   H2361546  19.481   5.808  15.007
  260ETHO    O161547  19.386   5.624  14.959
  260ETHO    C161548  19.522   5.579  14.932
  260ETHO   H1161549  19.558   5.648  14.852
  260ETHO   H1361550  19.586   5.600  15.020
  260ETHO    C261551  19.524   5.427  14.899
  260ETHO   H2161552  19.631   5.415  14.871
  260ETHO   H2361553  19.459   5.422  14.809
  261ETHO    O161554  19.472   5.347  15.001
  261ETHO    C161555  19.477   5.215  14.963
  261ETHO   H1161556  19.406   5.194  14.881
  261ETHO   H1361557  19.576   5.194  14.917
  261ETHO    C261558  19.454   5.128  15.083
  261ETHO   H2161559  19.345   5.131  15.099
  261ETHO   H2361560  19.515   5.163  15.169
  262ETHO    O161561  19.484   4.990  15.048
  262ETHO    C161562  19.414   4.895  15.117
  262ETHO   H1161563  19.312   4.936  15.133
  262ETHO   H1361564  19.451   4.893  15.222
  262ETHO    C261565  19.427   4.747  15.069
  262ETHO   H2161566  19.411   4.748  14.959
  262ETHO   H2361567  19.344   4.683  15.108
  263ETHO    O161568  19.562   4.700  15.083
  263ETHO    C161569  19.605   4.705  15.222
  263ETHO   H1161570  19.524   4.673  15.291
  263ETHO   H1361571  19.630   4.811  15.242
  263ETHO    C261572  19.730   4.625  15.251
  263ETHO   H2161573  19.710   4.517  15.235
  263ETHO   H2361574  19.762   4.652  15.354
  264ETHO    O161575  19.831   4.680  15.167
  264ETHO    C161576  19.936   4.595  15.154
  264ETHO   H1161577  19.915   4.518  15.077
  264ETHO   H1361578  19.953   4.530  15.242
  264ETHO    C261579  20.069   4.653  15.112
  264ETHO   H2161580  20.064   4.733  15.035
  264ETHO   H2361581  20.131   4.575  15.062
  265ETHO    O161582  20.134   4.699  15.232
  265ETHO    C161583  20.272   4.729  15.208
  265ETHO   H1161584  20.325   4.632  15.199
  265ETHO   H1361585  20.282   4.788  15.114
  265ETHO    C261586  20.343   4.798  15.326
  265ETHO   H2161587  20.324   4.743  15.421
  265ETHO   H2361588  20.310   4.903  15.338
  265ETHO    OZ61589  20.482   4.804  15.299
  265ETHO   HZ161590  20.527   4.811  15.384
    1ETHO    O161591   7.504   6.589  17.535
    1ETHO   HO161592   7.505   6.656  17.466
    1ETHO    C161593   7.479   6.459  17.480
    1ETHO   H1161594   7.389   6.446  17.416
    1ETHO   H1361595   7.458   6.392  17.566
    1ETHO    C261596   7.595   6.409  17.398
    1ETHO   H2161597   7.598   6.300  17.376
    1ETHO   H2361598   7.695   6.436  17.441
    2ETHO    O161599   7.580   6.477  17.266
    2ETHO    C161600   7.689   6.443  17.177
    2ETHO   H1161601   7.788   6.460  17.226
    2ETHO   H1361602   7.684   6.332  17.164
    2ETHO    C261603   7.674   6.517  17.038
    2ETHO   H2161604   7.750   6.475  16.969
    2ETHO   H2361605   7.695   6.626  17.043
    3ETHO    O161606   7.540   6.512  16.995
    3ETHO    C161607   7.538   6.549  16.855
    3ETHO   H1161608   7.604   6.489  16.788
    3ETHO   H1361609   7.577   6.653  16.858
    3ETHO    C261610   7.395   6.560  16.799
    3ETHO   H2161611   7.402   6.630  16.712
    3ETHO   H2361612   7.327   6.614  16.867
    4ETHO    O161613   7.356   6.425  16.761
    4ETHO    C161614   7.219   6.410  16.720
    4ETHO   H1161615   7.183   6.305  16.721
    4ETHO   H1361616   7.160   6.454  16.803
    4ETHO    C261617   7.176   6.461  16.582
    4ETHO   H2161618   7.208   6.567  16.587
    4ETHO   H2361619   7.067   6.445  16.566
    5ETHO    O161620   7.244   6.392  16.480
    5ETHO    C161621   7.176   6.422  16.355
    5ETHO   H1161622   7.091   6.352  16.342
    5ETHO   H1361623   7.144   6.528  16.367
    5ETHO    C261624   7.267   6.419  16.231
    5ETHO   H2161625   7.206   6.403  16.140
    5ETHO   H2361626   7.327   6.327  16.245
    6ETHO    O161627   7.349   6.537  16.232
    6ETHO    C161628   7.461   6.524  16.145
    6ETHO   H1161629   7.534   6.454  16.192
    6ETHO   H1361630   7.420   6.495  16.046
    6ETHO    C261631   7.534   6.666  16.132
    6ETHO   H2161632   7.627   6.640  16.076
    6ETHO   H2361633   7.578   6.692  16.231
    7ETHO    O161634   7.463   6.766  16.066
    7ETHO    C161635   7.517   6.897  16.095
    7ETHO   H1161636   7.518   6.899  16.206
    7ETHO   H1361637   7.621   6.886  16.058
    7ETHO    C261638   7.452   7.018  16.029
    7ETHO   H2161639   7.511   7.099  16.076
    7ETHO   H2361640   7.347   7.039  16.059
    8ETHO    O161641   7.460   7.021  15.889
    8ETHO    C161642   7.418   7.142  15.835
    8ETHO   H1161643   7.459   7.227  15.894
    8ETHO   H1361644   7.308   7.150  15.853
    8ETHO    C261645   7.453   7.162  15.692
    8ETHO   H2161646   7.381   7.228  15.640
    8ETHO   H2361647   7.432   7.064  15.644
    9ETHO    O161648   7.583   7.203  15.673
    9ETHO    C161649   7.634   7.172  15.540
    9ETHO   H1161650   7.551   7.186  15.468
    9ETHO   H1361651   7.708   7.253  15.526
    9ETHO    C261652   7.691   7.030  15.535
    9ETHO   H2161653   7.610   6.967  15.494
    9ETHO   H2361654   7.720   6.986  15.633
   10ETHO    O161655   7.806   7.021  15.448
   10ETHO    C161656   7.853   6.892  15.436
   10ETHO   H1161657   7.773   6.827  15.394
   10ETHO   H1361658   7.895   6.861  15.534
   10ETHO    C261659   7.972   6.895  15.333
   10ETHO   H2161660   8.023   6.798  15.350
   10ETHO   H2361661   8.036   6.985  15.340
   11ETHO    O161662   7.915   6.894  15.207
   11ETHO    C161663   7.996   6.832  15.111
   11ETHO   H1161664   8.083   6.901  15.098
   11ETHO   H1361665   8.030   6.733  15.148
   11ETHO    C261666   7.933   6.832  14.973
   11ETHO   H2161667   7.979   6.758  14.904
   11ETHO   H2361668   7.835   6.782  14.987
   12ETHO    O161669   7.924   6.969  14.920
   12ETHO    C161670   8.003   6.976  14.800
   12ETHO   H1161671   7.986   6.899  14.723
   12ETHO   H1361672   8.109   6.963  14.830
   12ETHO    C261673   8.010   7.117  14.729
   12ETHO   H2161674   7.904   7.141  14.704
   12ETHO   H2361675   8.055   7.098  14.629
   13ETHO    O161676   8.091   7.214  14.791
   13ETHO    C161677   8.107   7.332  14.718
   13ETHO   H1161678   8.213   7.364  14.724
   13ETHO   H1361679   8.070   7.320  14.614
   13ETHO    C261680   8.022   7.440  14.784
   13ETHO   H2161681   8.023   7.529  14.717
   13ETHO   H2361682   8.063   7.458  14.885
   14ETHO    O161683   7.883   7.396  14.794
   14ETHO    C161684   7.802   7.485  14.867
   14ETHO   H1161685   7.791   7.585  14.819
   14ETHO   H1361686   7.854   7.514  14.961
   14ETHO    C261687   7.661   7.421  14.883
   14ETHO   H2161688   7.665   7.343  14.963
   14ETHO   H2361689   7.641   7.381  14.782
   15ETHO    O161690   7.553   7.504  14.914
   15ETHO    C161691   7.423   7.436  14.910
   15ETHO   H1161692   7.397   7.438  14.802
   15ETHO   H1361693   7.437   7.329  14.937
   15ETHO    C261694   7.327   7.502  15.007
   15ETHO   H2161695   7.335   7.469  15.112
   15ETHO   H2361696   7.346   7.610  14.986
   16ETHO    O161697   7.199   7.475  14.966
   16ETHO    C161698   7.100   7.548  15.036
   16ETHO   H1161699   7.116   7.550  15.146
   16ETHO   H1361700   7.104   7.650  14.992
   16ETHO    C261701   6.956   7.494  15.022
   16ETHO   H2161702   6.923   7.502  14.916
   16ETHO   H2361703   6.896   7.564  15.083
   17ETHO    O161704   6.946   7.368  15.082
   17ETHO    C161705   6.805   7.335  15.106
   17ETHO   H1161706   6.766   7.404  15.184
   17ETHO   H1361707   6.751   7.337  15.009
   17ETHO    C261708   6.785   7.189  15.143
   17ETHO   H2161709   6.679   7.168  15.171
   17ETHO   H2361710   6.852   7.161  15.226
   18ETHO    O161711   6.811   7.091  15.042
   18ETHO    C161712   6.776   6.959  15.075
   18ETHO   H1161713   6.807   6.941  15.180
   18ETHO   H1361714   6.665   6.960  15.069
   18ETHO    C261715   6.841   6.853  14.983
   18ETHO   H2161716   6.815   6.753  15.023
   18ETHO   H2361717   6.952   6.864  14.988
   19ETHO    O161718   6.789   6.859  14.849
   19ETHO    C161719   6.872   6.774  14.772
   19ETHO   H1161720   6.976   6.813  14.782
   19ETHO   H1361721   6.838   6.770  14.667
   19ETHO    C261722   6.875   6.625  14.814
   19ETHO   H2161723   6.906   6.566  14.725
   19ETHO   H2361724   6.776   6.579  14.833
   20ETHO    O161725   6.967   6.598  14.920
   20ETHO    C161726   6.981   6.462  14.945
   20ETHO   H1161727   6.889   6.407  14.976
   20ETHO   H1361728   7.020   6.423  14.848
   20ETHO    C261729   7.073   6.431  15.066
   20ETHO   H2161730   7.078   6.323  15.091
   20ETHO   H2361731   7.032   6.483  15.155
   21ETHO    O161732   7.203   6.481  15.040
   21ETHO    C161733   7.286   6.450  15.153
   21ETHO   H1161734   7.291   6.341  15.173
   21ETHO   H1361735   7.243   6.492  15.246
   21ETHO    C261736   7.429   6.505  15.126
   21ETHO   H2161737   7.479   6.470  15.033
   21ETHO   H2361738   7.501   6.465  15.199
   22ETHO    O161739   7.443   6.649  15.141
   22ETHO    C161740   7.545   6.709  15.060
   22ETHO   H1161741   7.645   6.677  15.095
   22ETHO   H1361742   7.533   6.669  14.957
   22ETHO    C261743   7.549   6.859  15.041
   22ETHO   H2161744   7.539   6.909  15.140
   22ETHO   H2361745   7.650   6.882  15.001
   23ETHO    O161746   7.460   6.912  14.951
   23ETHO    C161747   7.511   7.038  14.903
   23ETHO   H1161748   7.567   7.089  14.984
   23ETHO   H1361749   7.427   7.106  14.879
   23ETHO    C261750   7.609   7.050  14.782
   23ETHO   H2161751   7.692   6.977  14.793
   23ETHO   H2361752   7.650   7.153  14.768
   24ETHO    O161753   7.543   7.033  14.658
   24ETHO    C161754   7.644   7.060  14.551
   24ETHO   H1161755   7.683   7.164  14.558
   24ETHO   H1361756   7.722   6.981  14.565
   24ETHO    C261757   7.599   7.055  14.402
   24ETHO   H2161758   7.684   7.085  14.338
   24ETHO   H2361759   7.518   7.132  14.399
   25ETHO    O161760   7.566   6.923  14.353
   25ETHO    C161761   7.441   6.932  14.282
   25ETHO   H1161762   7.445   7.010  14.203
   25ETHO   H1361763   7.367   6.956  14.361
   25ETHO    C261764   7.405   6.795  14.221
   25ETHO   H2161765   7.454   6.718  14.283
   25ETHO   H2361766   7.427   6.794  14.112
   26ETHO    O161767   7.269   6.788  14.237
   26ETHO    C161768   7.212   6.661  14.206
   26ETHO   H1161769   7.279   6.605  14.138
   26ETHO   H1361770   7.208   6.611  14.305
   26ETHO    C261771   7.064   6.661  14.157
   26ETHO   H2161772   7.013   6.759  14.158
   26ETHO   H2361773   7.014   6.591  14.228
   27ETHO    O161774   7.054   6.603  14.025
   27ETHO    C161775   7.070   6.699  13.921
   27ETHO   H1161776   7.046   6.804  13.949
   27ETHO   H1361777   6.988   6.673  13.851
   27ETHO    C261778   7.206   6.701  13.845
   27ETHO   H2161779   7.283   6.737  13.917
   27ETHO   H2361780   7.193   6.782  13.770
   28ETHO    O161781   7.247   6.587  13.775
   28ETHO    C161782   7.222   6.594  13.633
   28ETHO   H1161783   7.112   6.612  13.635
   28ETHO   H1361784   7.260   6.688  13.588
   28ETHO    C261785   7.256   6.467  13.552
   28ETHO   H2161786   7.191   6.485  13.463
   28ETHO   H2361787   7.227   6.375  13.606
   29ETHO    O161788   7.387   6.448  13.507
   29ETHO    C161789   7.418   6.320  13.461
   29ETHO   H1161790   7.332   6.254  13.481
   29ETHO   H1361791   7.511   6.293  13.516
   29ETHO    C261792   7.441   6.300  13.308
   29ETHO   H2161793   7.515   6.219  13.287
   29ETHO   H2361794   7.497   6.389  13.271
   30ETHO    O161795   7.329   6.283  13.224
   30ETHO    C161796   7.341   6.175  13.135
   30ETHO   H1161797   7.277   6.182  13.044
   30ETHO   H1361798   7.444   6.152  13.101
   30ETHO    C261799   7.302   6.034  13.195
   30ETHO   H2161800   7.354   6.015  13.292
   30ETHO   H2361801   7.342   5.953  13.131
   31ETHO    O161802   7.160   6.022  13.205
   31ETHO    C161803   7.108   5.952  13.092
   31ETHO   H1161804   7.129   6.014  13.001
   31ETHO   H1361805   7.170   5.861  13.080
   31ETHO    C261806   6.958   5.917  13.096
   31ETHO   H2161807   6.904   5.944  13.003
   31ETHO   H2361808   6.904   5.977  13.173
   32ETHO    O161809   6.910   5.788  13.141
   32ETHO    C161810   6.939   5.685  13.046
   32ETHO   H1161811   7.048   5.677  13.028
   32ETHO   H1361812   6.904   5.594  13.099
   32ETHO    C261813   6.849   5.684  12.917
   32ETHO   H2161814   6.742   5.708  12.935
   32ETHO   H2361815   6.854   5.581  12.876
   33ETHO    O161816   6.896   5.770  12.813
   33ETHO    C161817   6.811   5.752  12.700
   33ETHO   H1161818   6.853   5.665  12.644
   33ETHO   H1361819   6.708   5.727  12.732
   33ETHO    C261820   6.807   5.883  12.620
   33ETHO   H2161821   6.755   5.866  12.524
   33ETHO   H2361822   6.908   5.925  12.599
   34ETHO    O161823   6.735   5.976  12.701
   34ETHO    C161824   6.731   6.108  12.638
   34ETHO   H1161825   6.641   6.112  12.572
   34ETHO   H1361826   6.831   6.127  12.593
   34ETHO    C261827   6.708   6.200  12.754
   34ETHO   H2161828   6.690   6.302  12.714
   34ETHO   H2361829   6.802   6.204  12.812
   35ETHO    O161830   6.596   6.151  12.824
   35ETHO    C161831   6.612   6.176  12.966
   35ETHO   H1161832   6.705   6.127  13.002
   35ETHO   H1361833   6.618   6.285  12.985
   35ETHO    C261834   6.492   6.119  13.052
   35ETHO   H2161835   6.406   6.170  13.005
   35ETHO   H2361836   6.503   6.159  13.155
   36ETHO    O161837   6.476   5.983  13.057
   36ETHO    C161838   6.372   5.941  13.140
   36ETHO   H1161839   6.281   5.992  13.102
   36ETHO   H1361840   6.394   5.971  13.245
   36ETHO    C261841   6.343   5.786  13.125
   36ETHO   H2161842   6.357   5.736  13.026
   36ETHO   H2361843   6.235   5.765  13.139
   37ETHO    O161844   6.421   5.724  13.232
   37ETHO    C161845   6.564   5.740  13.212
   37ETHO   H1161846   6.587   5.708  13.108
   37ETHO   H1361847   6.602   5.840  13.241
   37ETHO    C261848   6.640   5.640  13.301
   37ETHO   H2161849   6.748   5.651  13.280
   37ETHO   H2361850   6.617   5.534  13.278
   38ETHO    O161851   6.601   5.670  13.427
   38ETHO    C161852   6.690   5.621  13.526
   38ETHO   H1161853   6.639   5.652  13.620
   38ETHO   H1361854   6.788   5.672  13.518
   38ETHO    C261855   6.706   5.466  13.525
   38ETHO   H2161856   6.777   5.447  13.609
   38ETHO   H2361857   6.755   5.418  13.438
   39ETHO    O161858   6.576   5.415  13.548
   39ETHO    C161859   6.572   5.272  13.557
   39ETHO   H1161860   6.599   5.228  13.459
   39ETHO   H1361861   6.650   5.241  13.631
   39ETHO    C261862   6.430   5.218  13.590
   39ETHO   H2161863   6.442   5.109  13.610
   39ETHO   H2361864   6.357   5.222  13.507
   40ETHO    O161865   6.377   5.279  13.707
   40ETHO    C161866   6.235   5.241  13.726
   40ETHO   H1161867   6.214   5.154  13.660
   40ETHO   H1361868   6.172   5.330  13.707
   40ETHO    C261869   6.213   5.198  13.873
   40ETHO   H2161870   6.102   5.194  13.881
   40ETHO   H2361871   6.260   5.278  13.933
   41ETHO    O161872   6.267   5.071  13.905
   41ETHO    C161873   6.238   5.033  14.039
   41ETHO   H1161874   6.128   5.045  14.050
   41ETHO   H1361875   6.257   4.925  14.057
   41ETHO    C261876   6.319   5.116  14.149
   41ETHO   H2161877   6.272   5.094  14.247
   41ETHO   H2361878   6.320   5.226  14.131
   42ETHO    O161879   6.455   5.085  14.144
   42ETHO    C161880   6.535   5.104  14.253
   42ETHO   H1161881   6.546   5.208  14.292
   42ETHO   H1361882   6.497   5.034  14.331
   42ETHO    C261883   6.681   5.063  14.237
   42ETHO   H2161884   6.692   4.994  14.150
   42ETHO   H2361885   6.701   5.012  14.334
   43ETHO    O161886   6.769   5.179  14.229
   43ETHO    C161887   6.908   5.140  14.199
   43ETHO   H1161888   6.940   5.058  14.266
   43ETHO   H1361889   6.919   5.094  14.098
   43ETHO    C261890   7.001   5.262  14.201
   43ETHO   H2161891   6.952   5.349  14.154
   43ETHO   H2361892   7.091   5.239  14.139
   44ETHO    O161893   7.041   5.307  14.332
   44ETHO    C161894   7.162   5.383  14.337
   44ETHO   H1161895   7.242   5.308  14.352
   44ETHO   H1361896   7.191   5.443  14.248
   44ETHO    C261897   7.151   5.489  14.446
   44ETHO   H2161898   7.249   5.527  14.482
   44ETHO   H2361899   7.106   5.441  14.535
   45ETHO    O161900   7.078   5.608  14.412
   45ETHO    C161901   7.057   5.701  14.517
   45ETHO   H1161902   7.156   5.745  14.539
   45ETHO   H1361903   7.011   5.645  14.601
   45ETHO    C261904   6.953   5.806  14.478
   45ETHO   H2161905   6.931   5.864  14.570
   45ETHO   H2361906   6.862   5.751  14.447
   46ETHO    O161907   7.007   5.897  14.385
   46ETHO    C161908   7.074   6.007  14.442
   46ETHO   H1161909   7.012   6.050  14.523
   46ETHO   H1361910   7.168   5.966  14.484
   46ETHO    C261911   7.106   6.116  14.333
   46ETHO   H2161912   7.157   6.082  14.241
   46ETHO   H2361913   7.179   6.191  14.369
   47ETHO    O161914   6.984   6.173  14.286
   47ETHO    C161915   7.003   6.292  14.210
   47ETHO   H1161916   7.065   6.271  14.120
   47ETHO   H1361917   7.047   6.365  14.280
   47ETHO    C261918   6.862   6.341  14.162
   47ETHO   H2161919   6.883   6.443  14.122
   47ETHO   H2361920   6.802   6.336  14.255
   48ETHO    O161921   6.803   6.251  14.066
   48ETHO    C161922   6.834   6.289  13.933
   48ETHO   H1161923   6.798   6.393  13.913
   48ETHO   H1361924   6.944   6.280  13.925
   48ETHO    C261925   6.778   6.179  13.837
   48ETHO   H2161926   6.670   6.160  13.850
   48ETHO   H2361927   6.775   6.224  13.735
   49ETHO    O161928   6.855   6.057  13.852
   49ETHO    C161929   6.774   5.951  13.828
   49ETHO   H1161930   6.735   5.956  13.724
   49ETHO   H1361931   6.684   5.948  13.893
   49ETHO    C261932   6.855   5.821  13.826
   49ETHO   H2161933   6.780   5.740  13.839
   49ETHO   H2361934   6.923   5.829  13.913
   50ETHO    O161935   6.923   5.792  13.706
   50ETHO    C161936   7.011   5.679  13.720
   50ETHO   H1161937   7.095   5.696  13.791
   50ETHO   H1361938   6.948   5.597  13.761
   50ETHO    C261939   7.089   5.629  13.597
   50ETHO   H2161940   7.151   5.542  13.625
   50ETHO   H2361941   7.158   5.712  13.570
   51ETHO    O161942   7.003   5.591  13.493
   51ETHO    C161943   7.066   5.507  13.392
   51ETHO   H1161944   6.983   5.494  13.319
   51ETHO   H1361945   7.106   5.407  13.418
   51ETHO    C261946   7.170   5.589  13.320
   51ETHO   H2161947   7.127   5.692  13.324
   51ETHO   H2361948   7.177   5.570  13.211
   52ETHO    O161949   7.300   5.591  13.375
   52ETHO    C161950   7.392   5.685  13.313
   52ETHO   H1161951   7.391   5.661  13.205
   52ETHO   H1361952   7.344   5.784  13.326
   52ETHO    C261953   7.523   5.672  13.389
   52ETHO   H2161954   7.503   5.652  13.496
   52ETHO   H2361955   7.574   5.769  13.372
   53ETHO    O161956   7.597   5.571  13.325
   53ETHO    C161957   7.731   5.566  13.382
   53ETHO   H1161958   7.793   5.657  13.365
   53ETHO   H1361959   7.724   5.555  13.492
   53ETHO    C261960   7.801   5.441  13.334
   53ETHO   H2161961   7.828   5.447  13.226
   53ETHO   H2361962   7.726   5.360  13.349
   54ETHO    O161963   7.917   5.392  13.418
   54ETHO    C161964   7.997   5.295  13.350
   54ETHO   H1161965   7.946   5.197  13.346
   54ETHO   H1361966   8.011   5.335  13.247
   54ETHO    C261967   8.129   5.285  13.427
   54ETHO   H2161968   8.187   5.210  13.369
   54ETHO   H2361969   8.108   5.249  13.530
   55ETHO    O161970   8.201   5.401  13.437
   55ETHO    C161971   8.335   5.372  13.491
   55ETHO   H1161972   8.391   5.316  13.413
   55ETHO   H1361973   8.378   5.473  13.509
   55ETHO    C261974   8.341   5.301  13.621
   55ETHO   H2161975   8.423   5.328  13.691
   55ETHO   H2361976   8.241   5.325  13.665
   56ETHO    O161977   8.339   5.157  13.607
   56ETHO    C161978   8.474   5.100  13.606
   56ETHO   H1161979   8.487   5.050  13.705
   56ETHO   H1361980   8.553   5.176  13.589
   56ETHO    C261981   8.499   4.998  13.489
   56ETHO   H2161982   8.609   4.988  13.479
   56ETHO   H2361983   8.459   5.027  13.390
   57ETHO    O161984   8.448   4.875  13.531
   57ETHO    C161985   8.464   4.775  13.434
   57ETHO   H1161986   8.409   4.782  13.338
   57ETHO   H1361987   8.573   4.773  13.415
   57ETHO    C261988   8.438   4.634  13.483
   57ETHO   H2161989   8.495   4.619  13.577
   57ETHO   H2361990   8.478   4.559  13.412
   58ETHO    O161991   8.299   4.619  13.506
   58ETHO    C161992   8.285   4.531  13.619
   58ETHO   H1161993   8.293   4.591  13.712
   58ETHO   H1361994   8.360   4.449  13.617
   58ETHO    C261995   8.138   4.477  13.630
   58ETHO   H2161996   8.071   4.559  13.595
   58ETHO   H2361997   8.112   4.446  13.734
   59ETHO    O161998   8.113   4.366  13.548
   59ETHO    C161999   7.974   4.357  13.514
   59ETHO   H1162000   7.924   4.390  13.608
   59ETHO   H1362001   7.947   4.431  13.436
   59ETHO    C262002   7.924   4.215  13.486
   59ETHO   H2162003   7.998   4.164  13.421
   59ETHO   H2362004   7.828   4.218  13.430
   60ETHO    O162005   7.914   4.145  13.607
   60ETHO    C162006   7.889   4.007  13.579
   60ETHO   H1162007   7.974   3.964  13.522
   60ETHO   H1362008   7.797   3.989  13.519
   60ETHO    C262009   7.886   3.939  13.708
   60ETHO   H2162010   7.977   3.957  13.769
   60ETHO   H2362011   7.882   3.829  13.691
   61ETHO    O162012   7.759   3.962  13.767
   61ETHO    C162013   7.744   3.883  13.890
   61ETHO   H1162014   7.683   3.794  13.865
   61ETHO   H1362015   7.841   3.843  13.928
   61ETHO    C262016   7.658   3.972  13.982
   61ETHO   H2162017   7.708   4.071  13.970
   61ETHO   H2362018   7.659   3.957  14.092
   62ETHO    O162019   7.528   3.969  13.932
   62ETHO    C162020   7.440   4.062  14.000
   62ETHO   H1162021   7.501   4.119  14.074
   62ETHO   H1362022   7.376   4.004  14.070
   62ETHO    C262023   7.359   4.157  13.907
   62ETHO   H2162024   7.324   4.251  13.953
   62ETHO   H2362025   7.266   4.105  13.876
   63ETHO    O162026   7.436   4.192  13.790
   63ETHO    C162027   7.528   4.298  13.808
   63ETHO   H1162028   7.470   4.383  13.850
   63ETHO   H1362029   7.605   4.269  13.882
   63ETHO    C262030   7.604   4.341  13.682
   63ETHO   H2162031   7.667   4.268  13.626
   63ETHO   H2362032   7.675   4.419  13.719
   64ETHO    O162033   7.522   4.405  13.580
   64ETHO    C162034   7.608   4.464  13.486
   64ETHO   H1162035   7.669   4.384  13.439
   64ETHO   H1362036   7.682   4.531  13.534
   64ETHO    C262037   7.531   4.547  13.385
   64ETHO   H2162038   7.464   4.479  13.330
   64ETHO   H2362039   7.604   4.599  13.319
   65ETHO    O162040   7.461   4.653  13.450
   65ETHO    C162041   7.398   4.741  13.358
   65ETHO   H1162042   7.480   4.791  13.302
   65ETHO   H1362043   7.338   4.675  13.292
   65ETHO    C262044   7.300   4.845  13.411
   65ETHO   H2162045   7.264   4.911  13.329
   65ETHO   H2362046   7.328   4.902  13.502
   66ETHO    O162047   7.180   4.774  13.451
   66ETHO    C162048   7.066   4.845  13.424
   66ETHO   H1162049   7.054   4.858  13.315
   66ETHO   H1362050   7.069   4.943  13.477
   66ETHO    C262051   6.943   4.774  13.485
   66ETHO   H2162052   6.864   4.853  13.483
   66ETHO   H2362053   6.958   4.751  13.593
   67ETHO    O162054   6.895   4.655  13.420
   67ETHO    C162055   6.971   4.544  13.455
   67ETHO   H1162056   7.079   4.554  13.429
   67ETHO   H1362057   6.959   4.520  13.563
   67ETHO    C262058   6.914   4.430  13.371
   67ETHO   H2162059   6.962   4.330  13.387
   67ETHO   H2362060   6.936   4.463  13.267
   68ETHO    O162061   6.776   4.397  13.382
   68ETHO    C162062   6.728   4.308  13.274
   68ETHO   H1162063   6.762   4.351  13.177
   68ETHO   H1362064   6.791   4.216  13.284
   68ETHO    C262065   6.586   4.268  13.295
   68ETHO   H2162066   6.568   4.231  13.398
   68ETHO   H2362067   6.556   4.189  13.224
   69ETHO    O162068   6.503   4.386  13.291
   69ETHO    C162069   6.378   4.365  13.223
   69ETHO   H1162070   6.339   4.461  13.185
   69ETHO   H1362071   6.396   4.312  13.126
   69ETHO    C262072   6.277   4.283  13.309
   69ETHO   H2162073   6.189   4.278  13.241
   69ETHO   H2362074   6.256   4.358  13.388
   70ETHO    O162075   6.309   4.154  13.350
   70ETHO    C162076   6.231   4.123  13.466
   70ETHO   H1162077   6.267   4.188  13.548
   70ETHO   H1362078   6.125   4.147  13.444
   70ETHO    C262079   6.233   3.975  13.502
   70ETHO   H2162080   6.193   3.926  13.411
   70ETHO   H2362081   6.160   3.951  13.582
   71ETHO    O162082   6.362   3.915  13.532
   71ETHO    C162083   6.360   3.773  13.529
   71ETHO   H1162084   6.336   3.742  13.424
   71ETHO   H1362085   6.285   3.730  13.599
   71ETHO    C262086   6.501   3.717  13.568
   71ETHO   H2162087   6.573   3.770  13.501
   71ETHO   H2362088   6.504   3.606  13.569
   72ETHO    O162089   6.534   3.755  13.704
   72ETHO    C162090   6.659   3.700  13.742
   72ETHO   H1162091   6.660   3.589  13.751
   72ETHO   H1362092   6.733   3.716  13.660
   72ETHO    C262093   6.708   3.768  13.870
   72ETHO   H2162094   6.715   3.878  13.859
   72ETHO   H2362095   6.807   3.728  13.899
   73ETHO    O162096   6.617   3.758  13.975
   73ETHO    C162097   6.654   3.835  14.089
   73ETHO   H1162098   6.661   3.945  14.075
   73ETHO   H1362099   6.754   3.800  14.121
   73ETHO    C262100   6.548   3.819  14.193
   73ETHO   H2162101   6.440   3.817  14.165
   73ETHO   H2362102   6.561   3.897  14.272
   74ETHO    O162103   6.573   3.698  14.271
   74ETHO    C162104   6.472   3.684  14.371
   74ETHO   H1162105   6.443   3.781  14.417
   74ETHO   H1362106   6.373   3.651  14.331
   74ETHO    C262107   6.529   3.603  14.488
   74ETHO   H2162108   6.446   3.604  14.563
   74ETHO   H2362109   6.623   3.652  14.521
   75ETHO    O162110   6.561   3.464  14.471
   75ETHO    C162111   6.589   3.397  14.590
   75ETHO   H1162112   6.583   3.290  14.563
   75ETHO   H1362113   6.510   3.421  14.664
   75ETHO    C262114   6.727   3.423  14.655
   75ETHO   H2162115   6.810   3.403  14.583
   75ETHO   H2362116   6.744   3.346  14.733
   76ETHO    O162117   6.745   3.547  14.721
   76ETHO    C162118   6.884   3.578  14.746
   76ETHO   H1162119   6.903   3.650  14.828
   76ETHO   H1362120   6.933   3.480  14.764
   76ETHO    C262121   6.938   3.641  14.621
   76ETHO   H2162122   6.909   3.582  14.532
   76ETHO   H2362123   7.048   3.658  14.615
   77ETHO    O162124   6.871   3.769  14.615
   77ETHO    C162125   6.860   3.821  14.477
   77ETHO   H1162126   6.785   3.755  14.429
   77ETHO   H1362127   6.957   3.823  14.422
   77ETHO    C262128   6.808   3.968  14.468
   77ETHO   H2162129   6.892   4.025  14.513
   77ETHO   H2362130   6.735   3.982  14.551
   78ETHO    O162131   6.772   4.019  14.343
   78ETHO    C162132   6.756   4.158  14.343
   78ETHO   H1162133   6.700   4.194  14.432
   78ETHO   H1362134   6.861   4.194  14.354
   78ETHO    C262135   6.696   4.208  14.216
   78ETHO   H2162136   6.687   4.318  14.228
   78ETHO   H2362137   6.597   4.160  14.205
   79ETHO    O162138   6.785   4.188  14.109
   79ETHO    C162139   6.749   4.268  13.985
   79ETHO   H1162140   6.650   4.224  13.962
   79ETHO   H1362141   6.732   4.376  14.004
   79ETHO    C262142   6.831   4.234  13.855
   79ETHO   H2162143   6.779   4.282  13.769
   79ETHO   H2362144   6.840   4.124  13.844
   80ETHO    O162145   6.958   4.291  13.868
   80ETHO    C162146   7.033   4.298  13.749
   80ETHO   H1162147   7.079   4.199  13.729
   80ETHO   H1362148   6.966   4.325  13.665
   80ETHO    C262149   7.148   4.405  13.757
   80ETHO   H2162150   7.188   4.404  13.653
   80ETHO   H2362151   7.235   4.360  13.809
   81ETHO    O162152   7.107   4.531  13.801
   81ETHO    C162153   7.226   4.615  13.813
   81ETHO   H1162154   7.287   4.580  13.899
   81ETHO   H1362155   7.287   4.603  13.721
   81ETHO    C262156   7.185   4.763  13.817
   81ETHO   H2162157   7.280   4.816  13.841
   81ETHO   H2362158   7.153   4.797  13.717
   82ETHO    O162159   7.090   4.806  13.914
   82ETHO    C162160   7.095   4.941  13.928
   82ETHO   H1162161   6.992   4.955  13.967
   82ETHO   H1362162   7.089   4.990  13.828
   82ETHO    C262163   7.199   4.989  14.026
   82ETHO   H2162164   7.197   4.932  14.122
   82ETHO   H2362165   7.160   5.092  14.041
   83ETHO    O162166   7.332   5.002  13.964
   83ETHO    C162167   7.422   5.096  14.021
   83ETHO   H1162168   7.359   5.182  14.053
   83ETHO   H1362169   7.462   5.041  14.109
   83ETHO    C262170   7.523   5.137  13.919
   83ETHO   H2162171   7.469   5.178  13.831
   83ETHO   H2362172   7.572   5.044  13.883
   84ETHO    O162173   7.629   5.215  13.958
   84ETHO    C162174   7.595   5.322  14.044
   84ETHO   H1162175   7.548   5.283  14.137
   84ETHO   H1362176   7.520   5.388  13.996
   84ETHO    C262177   7.715   5.418  14.085
   84ETHO   H2162178   7.795   5.349  14.119
   84ETHO   H2362179   7.690   5.486  14.170
   85ETHO    O162180   7.767   5.487  13.972
   85ETHO    C162181   7.885   5.563  14.002
   85ETHO   H1162182   7.861   5.668  14.029
   85ETHO   H1362183   7.925   5.521  14.097
   85ETHO    C262184   7.985   5.539  13.896
   85ETHO   H2162185   7.966   5.440  13.850
   85ETHO   H2362186   8.092   5.555  13.924
   86ETHO    O162187   7.968   5.627  13.784
   86ETHO    C162188   8.063   5.600  13.682
   86ETHO   H1162189   8.056   5.492  13.659
   86ETHO   H1362190   8.160   5.611  13.734
   86ETHO    C262191   8.072   5.698  13.561
   86ETHO   H2162192   7.979   5.701  13.501
   86ETHO   H2362193   8.154   5.664  13.494
   87ETHO    O162194   8.119   5.831  13.586
   87ETHO    C162195   8.168   5.899  13.470
   87ETHO   H1162196   8.271   5.862  13.455
   87ETHO   H1362197   8.118   5.862  13.378
   87ETHO    C262198   8.179   6.050  13.484
   87ETHO   H2162199   8.074   6.082  13.498
   87ETHO   H2362200   8.217   6.086  13.386
   88ETHO    O162201   8.270   6.090  13.582
   88ETHO    C162202   8.285   6.234  13.590
   88ETHO   H1162203   8.189   6.289  13.586
   88ETHO   H1362204   8.348   6.267  13.504
   88ETHO    C262205   8.368   6.256  13.718
   88ETHO   H2162206   8.454   6.186  13.728
   88ETHO   H2362207   8.295   6.239  13.800
   89ETHO    O162208   8.409   6.388  13.728
   89ETHO    C162209   8.529   6.408  13.807
   89ETHO   H1162210   8.500   6.412  13.914
   89ETHO   H1362211   8.602   6.324  13.798
   89ETHO    C262212   8.592   6.541  13.786
   89ETHO   H2162213   8.666   6.553  13.868
   89ETHO   H2362214   8.513   6.619  13.796
   90ETHO    O162215   8.660   6.578  13.661
   90ETHO    C162216   8.700   6.719  13.666
   90ETHO   H1162217   8.694   6.766  13.566
   90ETHO   H1362218   8.627   6.765  13.735
   90ETHO    C262219   8.840   6.731  13.718
   90ETHO   H2162220   8.832   6.698  13.823
   90ETHO   H2362221   8.868   6.836  13.744
   91ETHO    O162222   8.934   6.678  13.634
   91ETHO    C162223   9.052   6.656  13.700
   91ETHO   H1162224   9.093   6.740  13.760
   91ETHO   H1362225   9.043   6.570  13.770
   91ETHO    C262226   9.155   6.629  13.594
   91ETHO   H2162227   9.119   6.562  13.512
   91ETHO   H2362228   9.236   6.576  13.649
   92ETHO    O162229   9.214   6.746  13.537
   92ETHO    C162230   9.255   6.717  13.403
   92ETHO   H1162231   9.300   6.616  13.402
   92ETHO   H1362232   9.162   6.719  13.343
   92ETHO    C262233   9.351   6.822  13.353
   92ETHO   H2162234   9.386   6.792  13.252
   92ETHO   H2362235   9.441   6.827  13.419
   93ETHO    O162236   9.289   6.950  13.328
   93ETHO    C162237   9.369   7.036  13.245
   93ETHO   H1162238   9.393   6.997  13.144
   93ETHO   H1362239   9.474   7.030  13.282
   93ETHO    C262240   9.306   7.180  13.230
   93ETHO   H2162241   9.315   7.223  13.332
   93ETHO   H2362242   9.205   7.170  13.186
   94ETHO    O162243   9.379   7.268  13.153
   94ETHO    C162244   9.336   7.404  13.169
   94ETHO   H1162245   9.228   7.392  13.145
   94ETHO   H1362246   9.359   7.446  13.269
   94ETHO    C262247   9.415   7.487  13.061
   94ETHO   H2162248   9.377   7.447  12.965
   94ETHO   H2362249   9.523   7.465  13.073
   95ETHO    O162250   9.391   7.625  13.072
   95ETHO    C162251   9.450   7.690  12.962
   95ETHO   H1162252   9.476   7.619  12.881
   95ETHO   H1362253   9.543   7.743  12.992
   95ETHO    C262254   9.353   7.801  12.912
   95ETHO   H2162255   9.251   7.760  12.928
   95ETHO   H2362256   9.374   7.813  12.804
   96ETHO    O162257   9.383   7.922  12.975
   96ETHO    C162258   9.286   8.022  12.943
   96ETHO   H1162259   9.325   8.078  12.856
   96ETHO   H1362260   9.198   7.960  12.916
   96ETHO    C262261   9.242   8.111  13.063
   96ETHO   H2162262   9.230   8.047  13.153
   96ETHO   H2362263   9.142   8.141  13.026
   97ETHO    O162264   9.322   8.228  13.093
   97ETHO    C162265   9.260   8.312  13.186
   97ETHO   H1162266   9.232   8.269  13.285
   97ETHO   H1362267   9.168   8.357  13.144
   97ETHO    C262268   9.357   8.426  13.227
   97ETHO   H2162269   9.460   8.387  13.244
   97ETHO   H2362270   9.320   8.472  13.321
   98ETHO    O162271   9.367   8.527  13.126
   98ETHO    C162272   9.455   8.629  13.168
   98ETHO   H1162273   9.423   8.660  13.270
   98ETHO   H1362274   9.557   8.588  13.181
   98ETHO    C262275   9.479   8.758  13.082
   98ETHO   H2162276   9.509   8.835  13.156
   98ETHO   H2362277   9.403   8.791  13.009
   99ETHO    O162278   9.590   8.744  13.000
   99ETHO    C162279   9.652   8.869  12.969
   99ETHO   H1162280   9.657   8.937  13.057
   99ETHO   H1362281   9.588   8.915  12.890
   99ETHO    C262282   9.793   8.851  12.893
   99ETHO   H2162283   9.807   8.940  12.827
   99ETHO   H2362284   9.778   8.757  12.837
  100ETHO    O162285   9.909   8.835  12.982
  100ETHO    C162286  10.026   8.767  12.941
  100ETHO   H1162287  10.013   8.672  12.885
  100ETHO   H1362288  10.071   8.832  12.862
  100ETHO    C262289  10.128   8.749  13.054
  100ETHO   H2162290  10.222   8.705  13.014
  100ETHO   H2362291  10.096   8.693  13.144
  101PROX    O162292  10.186   8.879  13.093
  101PROX    C162293  10.294   8.869  13.187
  101PROX   H1162294  10.251   8.860  13.289
  101PROX   H1362295  10.350   8.776  13.163
  101PROX    C262296  10.393   8.986  13.173
  101PROX   H2162297  10.329   9.076  13.168
  101PROX    C362298  10.475   8.978  13.047
  101PROX   H3162299  10.409   8.967  12.958
  101PROX   H3262300  10.531   9.073  13.038
  101PROX   H3362301  10.546   8.893  13.049
  102PROX    O162302  10.468   8.986  13.296
  102PROX    C162303  10.490   9.121  13.355
  102PROX   H1162304  10.514   9.189  13.271
  102PROX   H1362305  10.395   9.156  13.401
  102PROX    C262306  10.606   9.125  13.459
  102PROX   H2162307  10.590   9.050  13.540
  102PROX    C362308  10.606   9.266  13.529
  102PROX   H3162309  10.621   9.347  13.455
  102PROX   H3262310  10.525   9.286  13.603
  102PROX   H3362311  10.696   9.265  13.594
  103PROX    O162312  10.737   9.110  13.398
  103PROX    C162313  10.791   8.977  13.396
  103PROX   H1162314  10.834   8.950  13.495
  103PROX   H1362315  10.718   8.910  13.346
  103PROX    C262316  10.902   8.967  13.293
  103PROX   H2162317  10.986   9.033  13.325
  103PROX    C362318  10.867   9.018  13.151
  103PROX   H3162319  10.762   8.998  13.119
  103PROX   H3262320  10.887   9.127  13.156
  103PROX   H3362321  10.937   8.974  13.077
  104PROX    O162322  10.953   8.829  13.284
  104PROX    C162323  11.063   8.807  13.374
  104PROX   H1162324  11.064   8.864  13.469
  104PROX   H1362325  11.049   8.700  13.402
  104PROX    C262326  11.206   8.826  13.310
  104PROX   H2162327  11.201   8.809  13.200
  104PROX    C362328  11.305   8.718  13.374
  104PROX   H3162329  11.408   8.720  13.334
  104PROX   H3262330  11.321   8.761  13.475
  104PROX   H3362331  11.271   8.612  13.374
  105PROX    O162332  11.243   8.961  13.335
  105PROX    C162333  11.359   9.008  13.265
  105PROX   H1162334  11.448   9.014  13.331
  105PROX   H1362335  11.379   8.951  13.172
  105PROX    C262336  11.321   9.146  13.205
  105PROX   H2162337  11.304   9.210  13.294
  105PROX    C362338  11.202   9.146  13.116
  105PROX   H3162339  11.217   9.072  13.034
  105PROX   H3262340  11.104   9.140  13.169
  105PROX   H3362341  11.195   9.241  13.060
  106PROX    O162342  11.420   9.198  13.110
  106PROX    C162343  11.543   9.237  13.166
  106PROX   H1162344  11.539   9.335  13.219
  106PROX   H1362345  11.574   9.167  13.246
  106PROX    C262346  11.654   9.233  13.054
  106PROX   H2162347  11.605   9.170  12.976
  106PROX    C362348  11.786   9.179  13.107
  106PROX   H3162349  11.873   9.197  13.040
  106PROX   H3262350  11.809   9.224  13.205
  106PROX   H3362351  11.770   9.069  13.117
  107PROX    O162352  11.669   9.355  12.974
  107PROX    C162353  11.709   9.470  13.047
  107PROX   H1162354  11.703   9.459  13.158
  107PROX   H1362355  11.818   9.487  13.040
  107PROX    C262356  11.642   9.593  12.984
  107PROX   H2162357  11.532   9.589  12.997
  107PROX    C362358  11.673   9.606  12.828
  107PROX   H3162359  11.605   9.530  12.785
  107PROX   H3262360  11.645   9.708  12.796
  107PROX   H3362361  11.781   9.586  12.808
  108PROX    O162362  11.707   9.707  13.035
  108PROX    C162363  11.620   9.821  13.039
  108PROX   H1162364  11.553   9.821  12.950
  108PROX   H1362365  11.545   9.813  13.121
  108PROX    C262366  11.698   9.958  13.034
  108PROX   H2162367  11.783   9.968  12.963
  108PROX    C362368  11.767   9.993  13.177
  108PROX   H3162369  11.710   9.942  13.257
  108PROX   H3262370  11.870   9.952  13.186
  108PROX   H3362371  11.779  10.102  13.194
  109PROX    O162372  11.606  10.061  13.005
  109PROX    C162373  11.599  10.087  12.868
  109PROX   H1162374  11.681  10.160  12.849
  109PROX   H1362375  11.612   9.996  12.805
  109PROX    C262376  11.464  10.150  12.831
  109PROX   H2162377  11.455  10.236  12.901
  109PROX    C362378  11.332  10.059  12.837
  109PROX   H3162379  11.236  10.107  12.808
  109PROX   H3262380  11.352   9.980  12.762
  109PROX   H3362381  11.331  10.013  12.938
  110PROX    O162382  11.476  10.186  12.693
  110PROX    C162383  11.489  10.325  12.679
  110PROX   H1162384  11.394  10.371  12.643
  110PROX   H1362385  11.530  10.380  12.766
  110PROX    C262386  11.589  10.350  12.565
  110PROX   H2162387  11.688  10.305  12.584
  110PROX    C362388  11.594  10.499  12.540
  110PROX   H3162389  11.494  10.539  12.514
  110PROX   H3262390  11.628  10.557  12.628
  110PROX   H3362391  11.660  10.531  12.456
  111PROX    O162392  11.533  10.292  12.444
  111PROX    C162393  11.592  10.159  12.429
  111PROX   H1162394  11.702  10.172  12.419
  111PROX   H1362395  11.582  10.100  12.522
  111PROX    C262396  11.526  10.071  12.319
  111PROX   H2162397  11.515  10.129  12.225
  111PROX    C362398  11.375  10.040  12.362
  111PROX   H3162399  11.320   9.974  12.292
  111PROX   H3262400  11.369  10.001  12.466
  111PROX   H3362401  11.321  10.136  12.348
  112PROX    O162402  11.596   9.944  12.290
  112PROX    C162403  11.729   9.958  12.233
  112PROX   H1162404  11.731   9.929  12.126
  112PROX   H1362405  11.772  10.059  12.251
  112PROX    C262406  11.826   9.868  12.314
  112PROX   H2162407  11.926   9.884  12.269
  112PROX    C362408  11.795   9.722  12.321
  112PROX   H3162409  11.687   9.704  12.337
  112PROX   H3262410  11.817   9.675  12.223
  112PROX   H3362411  11.854   9.671  12.400
  113PROX    O162412  11.823   9.920  12.446
  113PROX    C162413  11.953   9.955  12.490
  113PROX   H1162414  12.017   9.865  12.475
  113PROX   H1362415  11.995  10.038  12.429
  113PROX    C262416  11.968   9.987  12.637
  113PROX   H2162417  12.076  10.000  12.662
  113PROX    C362418  11.910   9.882  12.737
  113PROX   H3162419  11.939   9.906  12.842
  113PROX   H3262420  11.799   9.876  12.729
  113PROX   H3362421  11.945   9.780  12.711
  114PROX    O162422  11.892  10.098  12.677
  114PROX    C162423  11.947  10.217  12.622
  114PROX   H1162424  12.050  10.203  12.585
  114PROX   H1362425  11.883  10.242  12.534
  114PROX    C262426  11.939  10.331  12.725
  114PROX   H2162427  11.843  10.320  12.779
  114PROX    C362428  11.942  10.472  12.662
  114PROX   H3162429  11.937  10.553  12.738
  114PROX   H3262430  12.040  10.500  12.617
  114PROX   H3362431  11.861  10.483  12.586
  115PROX    O162432  12.042  10.326  12.823
  115PROX    C162433  12.027  10.220  12.916
  115PROX   H1162434  11.933  10.163  12.898
  115PROX   H1362435  12.113  10.150  12.903
  115PROX    C262436  12.036  10.268  13.061
  115PROX   H2162437  12.107  10.352  13.076
  115PROX    C362438  12.099  10.158  13.154
  115PROX   H3162439  12.033  10.071  13.176
  115PROX   H3262440  12.179  10.112  13.092
  115PROX   H3362441  12.145  10.187  13.251
  116PROX    O162442  11.906  10.304  13.112
  116PROX    C162443  11.857  10.429  13.064
  116PROX   H1162444  11.893  10.510  13.131
  116PROX   H1362445  11.907  10.449  12.967
  116PROX    C262446  11.703  10.438  13.037
  116PROX   H2162447  11.672  10.351  12.975
  116PROX    C362448  11.663  10.558  12.953
  116PROX   H3162449  11.686  10.655  13.001
  116PROX   H3262450  11.704  10.552  12.850
  116PROX   H3362451  11.554  10.554  12.931
  117PROX    O162452  11.640  10.444  13.162
  117PROX    C162453  11.545  10.338  13.183
  117PROX   H1162454  11.467  10.362  13.108
  117PROX   H1362455  11.596  10.241  13.162
  117PROX    C262456  11.484  10.355  13.316
  117PROX   H2162457  11.400  10.427  13.319
  117PROX    C362458  11.586  10.379  13.421
  117PROX   H3162459  11.668  10.304  13.424
  117PROX   H3262460  11.631  10.478  13.400
  117PROX   H3362461  11.534  10.387  13.519
  118PROX    O162462  11.435  10.224  13.359
  118PROX    C162463  11.300  10.198  13.316
  118PROX   H1162464  11.235  10.265  13.376
  118PROX   H1362465  11.297  10.226  13.208
  118PROX    C262466  11.254  10.051  13.322
  118PROX   H2162467  11.283  10.029  13.427
  118PROX    C362468  11.313   9.962  13.221
  118PROX   H3162469  11.421   9.987  13.214
  118PROX   H3262470  11.309   9.853  13.243
  118PROX   H3362471  11.264   9.957  13.122
  119PROX    O162472  11.113  10.056  13.310
  119PROX    C162473  11.052   9.946  13.363
  119PROX   H1162474  11.059   9.873  13.280
  119PROX   H1362475  11.107   9.914  13.455
  119PROX    C262476  10.909   9.962  13.415
  119PROX   H2162477  10.853  10.003  13.328
  119PROX    C362478  10.898  10.063  13.533
  119PROX   H3162479  10.800  10.048  13.582
  119PROX   H3262480  10.963  10.040  13.620
  119PROX   H3362481  10.913  10.170  13.506
  120PROX    O162482  10.866   9.830  13.448
  120PROX    C162483  10.728   9.822  13.436
  120PROX   H1162484  10.681   9.908  13.487
  120PROX   H1362485  10.701   9.822  13.328
  120PROX    C262486  10.676   9.698  13.510
  120PROX   H2162487  10.747   9.614  13.495
  120PROX    C362488  10.545   9.646  13.463
  120PROX   H3162489  10.558   9.607  13.360
  120PROX   H3262490  10.487   9.573  13.523
  120PROX   H3362491  10.482   9.737  13.454
  121PROX    O162492  10.650   9.726  13.644
  121PROX    C162493  10.766   9.728  13.728
  121PROX   H1162494  10.844   9.789  13.678
  121PROX   H1362495  10.744   9.784  13.821
  121PROX    C262496  10.810   9.581  13.756
  121PROX   H2162497  10.716   9.521  13.761
  121PROX    C362498  10.866   9.551  13.890
  121PROX   H3162499  10.861   9.447  13.928
  121PROX   H3262500  10.974   9.580  13.886
  121PROX   H3362501  10.825   9.613  13.973
  122PROX    O162502  10.893   9.537  13.654
  122PROX    C162503  10.962   9.416  13.668
  122PROX   H1162504  11.042   9.422  13.745
  122PROX   H1362505  10.883   9.342  13.692
  122PROX    C262506  11.033   9.385  13.533
  122PROX   H2162507  10.969   9.419  13.449
  122PROX    C362508  11.057   9.234  13.507
  122PROX   H3162509  10.955   9.190  13.506
  122PROX   H3262510  11.106   9.216  13.409
  122PROX   H3362511  11.123   9.197  13.588
  123PROX    O162512  11.166   9.451  13.538
  123PROX    C162513  11.159   9.590  13.524
  123PROX   H1162514  11.072   9.629  13.466
  123PROX   H1362515  11.141   9.644  13.620
  123PROX    C262516  11.293   9.645  13.456
  123PROX   H2162517  11.288   9.755  13.449
  123PROX    C362518  11.312   9.601  13.310
  123PROX   H3162519  11.218   9.631  13.260
  123PROX   H3262520  11.407   9.647  13.275
  123PROX   H3362521  11.319   9.491  13.296
  124PROX    O162522  11.410   9.605  13.526
  124PROX    C162523  11.434   9.676  13.647
  124PROX   H1162524  11.345   9.683  13.713
  124PROX   H1362525  11.518   9.626  13.700
  124PROX    C262526  11.479   9.822  13.625
  124PROX   H2162527  11.391   9.875  13.584
  124PROX    C362528  11.583   9.832  13.514
  124PROX   H3162529  11.677   9.779  13.540
  124PROX   H3262530  11.542   9.786  13.422
  124PROX   H3362531  11.593   9.941  13.494
  125PROX    O162532  11.527   9.869  13.745
  125PROX    C162533  11.537  10.012  13.762
  125PROX   H1162534  11.574  10.032  13.864
  125PROX   H1362535  11.607  10.050  13.685
  125PROX    C262536  11.406  10.083  13.743
  125PROX   H2162537  11.362  10.062  13.643
  125PROX    C362538  11.420  10.230  13.758
  125PROX   H3162539  11.496  10.280  13.694
  125PROX   H3262540  11.325  10.281  13.735
  125PROX   H3362541  11.450  10.246  13.864
  126PROX    O162542  11.314  10.037  13.842
  126PROX    C162543  11.181  10.057  13.802
  126PROX   H1162544  11.158  10.165  13.815
  126PROX   H1362545  11.158  10.027  13.697
  126PROX    C262546  11.083   9.980  13.895
  126PROX   H2162547  11.105  10.017  13.998
  126PROX    C362548  11.115   9.833  13.887
  126PROX   H3162549  11.225   9.819  13.894
  126PROX   H3262550  11.057   9.782  13.968
  126PROX   H3362551  11.081   9.793  13.789
  127PROX    O162552  10.954  10.003  13.859
  127PROX    C162553  10.915  10.138  13.873
  127PROX   H1162554  10.938  10.181  13.973
  127PROX   H1362555  10.960  10.204  13.796
  127PROX    C262556  10.763  10.137  13.868
  127PROX   H2162557  10.728  10.043  13.822
  127PROX    C362558  10.705  10.265  13.803
  127PROX   H3162559  10.689  10.239  13.696
  127PROX   H3262560  10.602  10.284  13.840
  127PROX   H3362561  10.762  10.360  13.814
  128PROX    O162562  10.711  10.136  14.002
  128PROX    C162563  10.758  10.032  14.084
  128PROX   H1162564  10.740   9.938  14.028
  128PROX   H1362565  10.867  10.045  14.098
  128PROX    C262566  10.678  10.010  14.217
  128PROX   H2162567  10.656  10.107  14.268
  128PROX    C362568  10.765   9.922  14.319
  128PROX   H3162569  10.810   9.839  14.260
  128PROX   H3262570  10.847   9.973  14.374
  128PROX   H3362571  10.693   9.869  14.384
  129PROX    O162572  10.559   9.939  14.189
  129PROX    C162573  10.445  10.015  14.166
  129PROX   H1162574  10.429  10.094  14.243
  129PROX   H1362575  10.451  10.077  14.074
  129PROX    C262576  10.322   9.919  14.175
  129PROX   H2162577  10.234   9.981  14.151
  129PROX    C362578  10.291   9.887  14.330
  129PROX   H3162579  10.259   9.977  14.387
  129PROX   H3262580  10.212   9.811  14.345
  129PROX   H3362581  10.383   9.848  14.379
  130PROX    O162582  10.331   9.803  14.102
  130PROX    C162583  10.343   9.836  13.966
  130PROX   H1162584  10.279   9.925  13.953
  130PROX   H1362585  10.449   9.864  13.946
  130PROX    C262586  10.304   9.715  13.870
  130PROX   H2162587  10.200   9.691  13.900
  130PROX    C362588  10.397   9.585  13.895
  130PROX   H3162589  10.499   9.614  13.862
  130PROX   H3262590  10.384   9.558  14.002
  130PROX   H3362591  10.359   9.507  13.825
  131PROX    O162592  10.316   9.754  13.735
  131PROX    C162593  10.220   9.855  13.691
  131PROX   H1162594  10.151   9.816  13.614
  131PROX   H1362595  10.157   9.893  13.773
  131PROX    C262596  10.291   9.973  13.626
  131PROX   H2162597  10.328   9.936  13.528
  131PROX    C362598  10.403  10.023  13.722
  131PROX   H3162599  10.494   9.959  13.726
  131PROX   H3262600  10.430  10.127  13.694
  131PROX   H3362601  10.360  10.040  13.823
  132PROX    O162602  10.205  10.087  13.605
  132PROX    C162603  10.259  10.175  13.505
  132PROX   H1162604  10.370  10.186  13.509
  132PROX   H1362605  10.224  10.136  13.407
  132PROX    C262606  10.181  10.312  13.504
  132PROX   H2162607  10.187  10.356  13.606
  132PROX    C362608  10.032  10.299  13.459
  132PROX   H3162609  10.025  10.230  13.373
  132PROX   H3262610   9.954  10.259  13.528
  132PROX   H3362611   9.984  10.396  13.438
  133PROX    O162612  10.238  10.403  13.407
  133PROX    C162613  10.360  10.463  13.450
  133PROX   H1162614  10.339  10.510  13.548
  133PROX   H1362615  10.441  10.386  13.457
  133PROX    C262616  10.408  10.579  13.356
  133PROX   H2162617  10.330  10.656  13.341
  133PROX    C362618  10.445  10.516  13.226
  133PROX   H3162619  10.540  10.459  13.231
  133PROX   H3262620  10.373  10.438  13.194
  133PROX   H3362621  10.455  10.598  13.151
  134PROX    O162622  10.521  10.642  13.421
  134PROX    C162623  10.594  10.744  13.351
  134PROX   H1162624  10.641  10.704  13.259
  134PROX   H1362625  10.531  10.833  13.328
  134PROX    C262626  10.709  10.794  13.440
  134PROX   H2162627  10.774  10.712  13.479
  134PROX    C362628  10.652  10.865  13.566
  134PROX   H3162629  10.592  10.790  13.622
  134PROX   H3262630  10.728  10.893  13.642
  134PROX   H3362631  10.581  10.950  13.549
  135PROX    O162632  10.797  10.875  13.363
  135PROX    C162633  10.887  10.802  13.281
  135PROX   H1162634  10.958  10.751  13.349
  135PROX   H1362635  10.828  10.721  13.232
  135PROX    C262636  10.946  10.897  13.170
  135PROX   H2162637  10.989  10.986  13.219
  135PROX    C362638  10.844  10.949  13.068
  135PROX   H3162639  10.751  10.963  13.128
  135PROX   H3262640  10.877  11.046  13.025
  135PROX   H3362641  10.840  10.881  12.980
  136PROX    O162642  11.035  10.823  13.085
  136PROX    C162643  11.156  10.797  13.147
  136PROX   H1162644  11.185  10.894  13.192
  136PROX   H1362645  11.143  10.728  13.234
  136PROX    C262646  11.254  10.737  13.048
  136PROX   H2162647  11.214  10.643  13.004
  136PROX    C362648  11.374  10.693  13.132
  136PROX   H3162649  11.429  10.781  13.171
  136PROX   H3262650  11.345  10.624  13.214
  136PROX   H3362651  11.445  10.627  13.077
  137PROX    O162652  11.288  10.831  12.947
  137PROX    C162653  11.354  10.764  12.838
  137PROX   H1162654  11.461  10.743  12.857
  137PROX   H1362655  11.296  10.675  12.805
  137PROX    C262656  11.353  10.859  12.716
  137PROX   H2162657  11.416  10.948  12.736
  137PROX    C362658  11.207  10.902  12.686
  137PROX   H3162659  11.155  10.928  12.781
  137PROX   H3262660  11.209  10.990  12.619
  137PROX   H3362661  11.154  10.820  12.634
  138PROX    O162662  11.393  10.792  12.593
  138PROX    C162663  11.416  10.880  12.482
  138PROX   H1162664  11.322  10.919  12.438
  138PROX   H1362665  11.472  10.966  12.524
  138PROX    C262666  11.497  10.804  12.377
  138PROX   H2162667  11.556  10.726  12.429
  138PROX    C362668  11.593  10.904  12.313
  138PROX   H3162669  11.673  10.953  12.372
  138PROX   H3262670  11.640  10.861  12.222
  138PROX   H3362671  11.532  10.981  12.261
  139PROX    O162672  11.414  10.739  12.283
  139PROX    C162673  11.480  10.635  12.207
  139PROX   H1162674  11.572  10.672  12.158
  139PROX   H1362675  11.509  10.547  12.268
  139PROX    C262676  11.392  10.575  12.092
  139PROX   H2162677  11.368  10.658  12.022
  139PROX    C362678  11.262  10.529  12.158
  139PROX   H3162679  11.200  10.496  12.072
  139PROX   H3262680  11.280  10.446  12.229
  139PROX   H3362681  11.219  10.618  12.209
  140PROX    O162682  11.455  10.468  12.027
  140PROX    C162683  11.418  10.477  11.891
  140PROX   H1162684  11.308  10.489  11.880
  140PROX   H1362685  11.461  10.565  11.840
  140PROX    C262686  11.452  10.342  11.829
  140PROX   H2162687  11.556  10.319  11.860
  140PROX    C362688  11.440  10.349  11.682
  140PROX   H3162689  11.335  10.351  11.647
  140PROX   H3262690  11.493  10.441  11.648
  140PROX   H3362691  11.479  10.254  11.639
  141PROX    O162692  11.359  10.243  11.875
  141PROX    C162693  11.427  10.120  11.867
  141PROX   H1162694  11.443  10.087  11.762
  141PROX   H1362695  11.531  10.128  11.906
  141PROX    C262696  11.366  10.020  11.963
  141PROX   H2162697  11.353  10.076  12.059
  141PROX    C362698  11.466   9.909  11.970
  141PROX   H3162699  11.425   9.832  12.039
  141PROX   H3262700  11.486   9.857  11.874
  141PROX   H3362701  11.563   9.945  12.011
  142PROX    O162702  11.239   9.984  11.902
  142PROX    C162703  11.138   9.953  12.001
  142PROX   H1162704  11.087   9.864  11.961
  142PROX   H1362705  11.172   9.916  12.100
  142PROX    C262706  11.033  10.067  12.016
  142PROX   H2162707  10.991  10.091  11.916
  142PROX    C362708  11.086  10.199  12.085
  142PROX   H3162709  11.125  10.186  12.188
  142PROX   H3262710  11.168  10.248  12.027
  142PROX   H3362711  11.008  10.278  12.094
  143PROX    O162712  10.933  10.022  12.105
  143PROX    C162713  10.815   9.984  12.031
  143PROX   H1162714  10.775  10.078  11.988
  143PROX   H1362715  10.836   9.903  11.957
  143PROX    C262716  10.711   9.945  12.140
  143PROX   H2162717  10.748   9.897  12.233
  143PROX    C362718  10.622   9.832  12.076
  143PROX   H3162719  10.678   9.743  12.040
  143PROX   H3262720  10.556   9.794  12.157
  143PROX   H3362721  10.561   9.872  11.992
  144PROX    O162722  10.609  10.044  12.170
  144PROX    C162723  10.673  10.155  12.236
  144PROX   H1162724  10.744  10.110  12.308
  144PROX   H1362725  10.737  10.208  12.163
  144PROX    C262726  10.580  10.260  12.299
  144PROX   H2162727  10.516  10.203  12.369
  144PROX    C362728  10.494  10.326  12.191
  144PROX   H3162729  10.416  10.392  12.234
  144PROX   H3262730  10.566  10.377  12.123
  144PROX   H3362731  10.438  10.252  12.130
  145PROX    O162732  10.643  10.367  12.357
  145PROX    C162733  10.710  10.330  12.474
  145PROX   H1162734  10.805  10.272  12.469
  145PROX   H1362735  10.747  10.428  12.511
  145PROX    C262736  10.613  10.255  12.582
  145PROX   H2162737  10.506  10.276  12.557
  145PROX    C362738  10.627  10.311  12.725
  145PROX   H3162739  10.721  10.272  12.770
  145PROX   H3262740  10.618  10.421  12.708
  145PROX   H3362741  10.542  10.271  12.784
  146PROX    O162742  10.632  10.116  12.572
  146PROX    C162743  10.519  10.036  12.614
  146PROX   H1162744  10.500  10.062  12.720
  146PROX   H1362745  10.437  10.061  12.544
  146PROX    C262746  10.561   9.886  12.607
  146PROX   H2162747  10.651   9.876  12.672
  146PROX    C362748  10.608   9.838  12.466
  146PROX   H3162749  10.615   9.727  12.472
  146PROX   H3262750  10.528   9.858  12.392
  146PROX   H3362751  10.702   9.884  12.430
  147PROX    O162752  10.454   9.804  12.667
  147PROX    C162753  10.349   9.774  12.579
  147PROX   H1162754  10.338   9.859  12.508
  147PROX   H1362755  10.368   9.683  12.519
  147PROX    C262756  10.212   9.753  12.646
  147PROX   H2162757  10.217   9.748  12.757
  147PROX    C362758  10.148   9.625  12.601
  147PROX   H3162759  10.215   9.539  12.582
  147PROX   H3262760  10.072   9.586  12.672
  147PROX   H3362761  10.098   9.651  12.504
  148PROX    O162762  10.130   9.867  12.623
  148PROX    C162763  10.156   9.976  12.714
  148PROX   H1162764  10.103   9.953  12.809
  148PROX   H1362765  10.264   9.991  12.738
  148PROX    C262766  10.098  10.115  12.668
  148PROX   H2162767   9.988  10.105  12.680
  148PROX    C362768  10.131  10.152  12.521
  148PROX   H3162769  10.239  10.179  12.518
  148PROX   H3262770  10.108  10.073  12.446
  148PROX   H3362771  10.087  10.248  12.487
  149PROX    O162772  10.150  10.214  12.763
  149PROX    C162773  10.133  10.346  12.726
  149PROX   H1162774  10.211  10.366  12.649
  149PROX   H1362775  10.035  10.352  12.674
  149PROX    C262776  10.145  10.444  12.849
  149PROX   H2162777  10.099  10.540  12.818
  149PROX    C362778  10.290  10.476  12.892
  149PROX   H3162779  10.300  10.540  12.982
  149PROX   H3262780  10.348  10.387  12.924
  149PROX   H3362781  10.337  10.519  12.801
  150PROX    O162782  10.060  10.402  12.960
  150PROX    C162783  10.110  10.293  13.037
  150PROX   H1162784  10.197  10.253  12.981
  150PROX   H1362785  10.142  10.344  13.131
  150PROX    C262786  10.001  10.191  13.049
  150PROX   H2162787   9.975  10.161  12.945
  150PROX    C362788   9.892  10.259  13.112
  150PROX   H3162789   9.867  10.345  13.047
  150PROX   H3262790   9.797  10.205  13.134
  150PROX   H3362791   9.912  10.314  13.206
  151PROX    O162792  10.039  10.083  13.129
  151PROX    C162793   9.962   9.968  13.111
  151PROX   H1162794   9.856   9.993  13.132
  151PROX   H1362795   9.970   9.926  13.009
  151PROX    C262796   9.979   9.854  13.219
  151PROX   H2162797   9.904   9.772  13.211
  151PROX    C362798   9.961   9.908  13.360
  151PROX   H3162799   9.991   9.835  13.437
  151PROX   H3262800  10.039   9.986  13.376
  151PROX   H3362801   9.862   9.959  13.359
  152PROX    O162802  10.117   9.796  13.220
  152PROX    C162803  10.139   9.696  13.121
  152PROX   H1162804  10.116   9.597  13.167
  152PROX   H1362805  10.078   9.708  13.029
  152PROX    C262806  10.293   9.692  13.089
  152PROX   H2162807  10.351   9.663  13.179
  152PROX    C362808  10.351   9.839  13.057
  152PROX   H3162809  10.371   9.901  13.147
  152PROX   H3262810  10.447   9.827  13.004
  152PROX   H3362811  10.277   9.892  12.993
  153PROX    O162812  10.305   9.614  12.971
  153PROX    C162813  10.300   9.474  13.000
  153PROX   H1162814  10.360   9.453  13.091
  153PROX   H1362815  10.194   9.440  13.004
  153PROX    C262816  10.367   9.393  12.886
  153PROX   H2162817  10.361   9.457  12.795
  153PROX    C362818  10.302   9.255  12.860
  153PROX   H3162819  10.197   9.264  12.827
  153PROX   H3262820  10.346   9.187  12.784
  153PROX   H3362821  10.314   9.200  12.956
  154PROX    O162822  10.505   9.367  12.911
  154PROX    C162823  10.581   9.487  12.907
  154PROX   H1162824  10.560   9.539  12.811
  154PROX   H1362825  10.551   9.546  12.997
  154PROX    C262826  10.726   9.459  12.947
  154PROX   H2162827  10.786   9.412  12.867
  154PROX    C362828  10.742   9.359  13.067
  154PROX   H3162829  10.850   9.348  13.091
  154PROX   H3262830  10.707   9.401  13.164
  154PROX   H3362831  10.691   9.261  13.058
  155PROX    O162832  10.785   9.576  12.993
  155PROX    C162833  10.805   9.669  12.888
  155PROX   H1162834  10.866   9.615  12.812
  155PROX   H1362835  10.712   9.702  12.837
  155PROX    C262836  10.888   9.785  12.943
  155PROX   H2162837  10.917   9.849  12.857
  155PROX    C362838  11.017   9.717  13.008
  155PROX   H3162839  11.099   9.793  13.014
  155PROX   H3262840  10.996   9.676  13.109
  155PROX   H3362841  11.046   9.631  12.944
  156PROX    O162842  10.818   9.869  13.031
  156PROX    C162843  10.718   9.954  12.968
  156PROX   H1162844  10.773  10.019  12.897
  156PROX   H1362845  10.638   9.898  12.915
  156PROX    C262846  10.658  10.055  13.075
  156PROX   H2162847  10.607   9.991  13.150
  156PROX    C362848  10.551  10.136  13.016
  156PROX   H3162849  10.481  10.172  13.095
  156PROX   H3262850  10.586  10.231  12.970
  156PROX   H3362851  10.500  10.079  12.936
  157PROX    O162852  10.765  10.135  13.133
  157PROX    C162853  10.722  10.236  13.232
  157PROX   H1162854  10.624  10.284  13.211
  157PROX   H1362855  10.701  10.183  13.328
  157PROX    C262856  10.827  10.345  13.266
  157PROX   H2162857  10.920  10.289  13.289
  157PROX    C362858  10.785  10.420  13.393
  157PROX   H3162859  10.859  10.497  13.423
  157PROX   H3262860  10.689  10.476  13.389
  157PROX   H3362861  10.773  10.356  13.483
  158PROX    O162862  10.835  10.444  13.171
  158PROX    C162863  10.868  10.392  13.045
  158PROX   H1162864  10.947  10.315  13.056
  158PROX   H1362865  10.778  10.354  12.993
  158PROX    C262866  10.937  10.502  12.958
  158PROX   H2162867  11.023  10.541  13.016
  158PROX    C362868  10.836  10.615  12.929
  158PROX   H3162869  10.882  10.696  12.868
  158PROX   H3262870  10.751  10.570  12.874
  158PROX   H3362871  10.798  10.657  13.025
  159PROX    O162872  10.980  10.440  12.837
  159PROX    C162873  11.031  10.525  12.733
  159PROX   H1162874  10.947  10.560  12.670
  159PROX   H1362875  11.092  10.611  12.769
  159PROX    C262876  11.117  10.434  12.650
  159PROX   H2162877  11.205  10.390  12.702
  159PROX    C362878  11.163  10.519  12.530
  159PROX   H3162879  11.168  10.463  12.434
  159PROX   H3262880  11.084  10.593  12.506
  159PROX   H3362881  11.262  10.562  12.556
  160PROX    O162882  11.033  10.332  12.590
  160PROX    C162883  11.099  10.226  12.525
  160PROX   H1162884  11.143  10.260  12.429
  160PROX   H1362885  11.189  10.197  12.582
  160PROX    C262886  11.012  10.100  12.522
  160PROX   H2162887  10.925  10.121  12.455
  160PROX    C362888  10.952  10.054  12.660
  160PROX   H3162889  11.037  10.031  12.729
  160PROX   H3262890  10.893  10.137  12.703
  160PROX   H3362891  10.882   9.968  12.655
  161PROX    O162892  11.089   9.994  12.461
  161PROX    C162893  11.007   9.884  12.427
  161PROX   H1162894  10.935   9.853  12.505
  161PROX   H1362895  10.939   9.911  12.344
  161PROX    C262896  11.099   9.766  12.386
  161PROX   H2162897  11.192   9.796  12.333
  161PROX    C362898  11.024   9.664  12.292
  161PROX   H3162899  10.922   9.648  12.332
  161PROX   H3262900  11.004   9.707  12.191
  161PROX   H3362901  11.079   9.568  12.290
  162PROX    O162902  11.132   9.695  12.502
  162PROX    C162903  11.229   9.749  12.584
  162PROX   H1162904  11.325   9.749  12.528
  162PROX   H1362905  11.191   9.847  12.620
  162PROX    C262906  11.246   9.649  12.700
  162PROX   H2162907  11.145   9.619  12.736
  162PROX    C362908  11.323   9.697  12.819
  162PROX   H3162909  11.263   9.772  12.874
  162PROX   H3262910  11.327   9.616  12.894
  162PROX   H3362911  11.421   9.734  12.782
  163PROX    O162912  11.320   9.531  12.672
  163PROX    C162913  11.252   9.423  12.594
  163PROX   H1162914  11.162   9.463  12.543
  163PROX   H1362915  11.317   9.385  12.512
  163PROX    C262916  11.212   9.305  12.695
  163PROX   H2162917  11.141   9.338  12.773
  163PROX    C362918  11.338   9.252  12.762
  163PROX   H3162919  11.375   9.331  12.831
  163PROX   H3262920  11.318   9.160  12.821
  163PROX   H3362921  11.421   9.223  12.695
  164PROX    O162922  11.171   9.184  12.621
  164PROX    C162923  11.056   9.203  12.535
  164PROX   H1162924  11.075   9.282  12.458
  164PROX   H1362925  11.049   9.107  12.481
  164PROX    C262926  10.930   9.230  12.627
  164PROX   H2162927  10.938   9.330  12.674
  164PROX    C362928  10.917   9.139  12.754
  164PROX   H3162929  11.014   9.112  12.803
  164PROX   H3262930  10.855   9.194  12.828
  164PROX   H3362931  10.868   9.041  12.733
  165PROX    O162932  10.810   9.207  12.553
  165PROX    C162933  10.713   9.307  12.581
  165PROX   H1162934  10.677   9.299  12.686
  165PROX   H1362935  10.758   9.405  12.553
  165PROX    C262936  10.594   9.285  12.492
  165PROX   H2162937  10.626   9.273  12.386
  165PROX    C362938  10.499   9.411  12.499
  165PROX   H3162939  10.403   9.394  12.448
  165PROX   H3262940  10.487   9.429  12.608
  165PROX   H3362941  10.553   9.498  12.456
  166ETHO    O162942  10.525   9.169  12.527
  166ETHO    C162943  10.576   9.043  12.471
  166ETHO   H1162944  10.673   9.008  12.511
  166ETHO   H1362945  10.603   9.056  12.364
  166ETHO    C262946  10.480   8.922  12.483
  166ETHO   H2162947  10.467   8.898  12.590
  166ETHO   H2362948  10.524   8.830  12.439
  167ETHO    O162949  10.368   8.959  12.407
  167ETHO    C162950  10.242   8.912  12.462
  167ETHO   H1162951  10.254   8.812  12.508
  167ETHO   H1362952  10.215   8.981  12.544
  167ETHO    C262953  10.125   8.907  12.360
  167ETHO   H2162954  10.042   8.849  12.407
  167ETHO   H2362955  10.146   8.861  12.261
  168ETHO    O162956  10.064   9.037  12.340
  168ETHO    C162957   9.959   9.020  12.235
  168ETHO   H1162958   9.893   8.939  12.272
  168ETHO   H1362959  10.016   8.994  12.144
  168ETHO    C262960   9.883   9.152  12.212
  168ETHO   H2162961   9.857   9.151  12.104
  168ETHO   H2362962   9.958   9.229  12.241
  169ETHO    O162963   9.766   9.162  12.288
  169ETHO    C162964   9.722   9.298  12.295
  169ETHO   H1162965   9.775   9.339  12.383
  169ETHO   H1362966   9.749   9.337  12.195
  169ETHO    C262967   9.567   9.305  12.316
  169ETHO   H2162968   9.519   9.283  12.218
  169ETHO   H2362969   9.539   9.410  12.338
  170ETHO    O162970   9.517   9.232  12.423
  170ETHO    C162971   9.387   9.274  12.472
  170ETHO   H1162972   9.309   9.250  12.397
  170ETHO   H1362973   9.386   9.384  12.488
  170ETHO    C262974   9.339   9.204  12.603
  170ETHO   H2162975   9.250   9.257  12.643
  170ETHO   H2362976   9.426   9.212  12.672
  171ETHO    O162977   9.317   9.064  12.570
  171ETHO    C162978   9.348   8.987  12.684
  171ETHO   H1162979   9.453   9.007  12.712
  171ETHO   H1362980   9.274   9.013  12.763
  171ETHO    C262981   9.345   8.832  12.657
  171ETHO   H2162982   9.312   8.820  12.551
  171ETHO   H2362983   9.266   8.788  12.722
  172ETHO    O162984   9.477   8.779  12.678
  172ETHO    C162985   9.491   8.645  12.633
  172ETHO   H1162986   9.599   8.623  12.616
  172ETHO   H1362987   9.450   8.630  12.531
  172ETHO    C262988   9.426   8.534  12.714
  172ETHO   H2162989   9.431   8.567  12.820
  172ETHO   H2362990   9.494   8.446  12.708
  173ETHO    O162991   9.290   8.504  12.682
  173ETHO    C162992   9.275   8.397  12.587
  173ETHO   H1162993   9.351   8.429  12.512
  173ETHO   H1362994   9.307   8.303  12.636
  173ETHO    C262995   9.140   8.385  12.522
  173ETHO   H2162996   9.119   8.485  12.480
  173ETHO   H2362997   9.150   8.301  12.450
  174ETHO    O162998   9.039   8.349  12.612
  174ETHO    C162999   8.912   8.352  12.550
  174ETHO   H1163000   8.890   8.460  12.538
  174ETHO   H1363001   8.915   8.315  12.446
  174ETHO    C263002   8.800   8.273  12.623
  174ETHO   H2163003   8.705   8.327  12.603
  174ETHO   H2363004   8.827   8.269  12.730
  175ETHO    O163005   8.791   8.135  12.578
  175ETHO    C163006   8.668   8.076  12.627
  175ETHO   H1163007   8.660   8.095  12.736
  175ETHO   H1363008   8.586   8.129  12.574
  175ETHO    C263009   8.671   7.926  12.620
  175ETHO   H2163010   8.732   7.883  12.702
  175ETHO   H2363011   8.697   7.889  12.519
  176ETHO    O163012   8.545   7.883  12.658
  176ETHO    C163013   8.528   7.742  12.650
  176ETHO   H1163014   8.512   7.724  12.542
  176ETHO   H1363015   8.625   7.701  12.686
  176ETHO    C263016   8.413   7.674  12.713
  176ETHO   H2163017   8.388   7.576  12.666
  176ETHO   H2363018   8.321   7.732  12.686
  177ETHO    O163019   8.425   7.649  12.851
  177ETHO    C163020   8.383   7.763  12.930
  177ETHO   H1163021   8.281   7.803  12.913
  177ETHO   H1363022   8.457   7.841  12.900
  177ETHO    C263023   8.393   7.741  13.082
  177ETHO   H2163024   8.392   7.840  13.131
  177ETHO   H2363025   8.484   7.685  13.110
  178ETHO    O163026   8.271   7.679  13.144
  178ETHO    C163027   8.271   7.670  13.285
  178ETHO   H1163028   8.340   7.597  13.333
  178ETHO   H1363029   8.300   7.770  13.325
  178ETHO    C263030   8.135   7.620  13.338
  178ETHO   H2163031   8.138   7.608  13.448
  178ETHO   H2363032   8.099   7.520  13.303
  179ETHO    O163033   8.026   7.705  13.304
  179ETHO    C163034   7.900   7.646  13.313
  179ETHO   H1163035   7.885   7.626  13.421
  179ETHO   H1363036   7.893   7.552  13.255
  179ETHO    C263037   7.788   7.741  13.263
  179ETHO   H2163038   7.787   7.736  13.152
  179ETHO   H2363039   7.823   7.843  13.289
  180ETHO    O163040   7.665   7.714  13.328
  180ETHO    C163041   7.557   7.800  13.291
  180ETHO   H1163042   7.501   7.822  13.385
  180ETHO   H1363043   7.606   7.894  13.258
  180ETHO    C263044   7.473   7.734  13.174
  180ETHO   H2163045   7.372   7.780  13.158
  180ETHO   H2363046   7.449   7.629  13.200
  181ETHO    O163047   7.542   7.738  13.053
  181ETHO    C163048   7.475   7.662  12.956
  181ETHO   H1163049   7.484   7.712  12.857
  181ETHO   H1363050   7.366   7.663  12.979
  181ETHO    C263051   7.525   7.523  12.947
  181ETHO   H2163052   7.533   7.470  13.044
  181ETHO   H2363053   7.626   7.524  12.900
  182ETHO    O163054   7.433   7.448  12.869
  182ETHO    C163055   7.482   7.313  12.853
  182ETHO   H1163056   7.558   7.303  12.772
  182ETHO   H1363057   7.529   7.286  12.950
  182ETHO    C263058   7.360   7.227  12.817
  182ETHO   H2163059   7.405   7.125  12.819
  182ETHO   H2363060   7.322   7.255  12.717
  183ETHO    O163061   7.250   7.241  12.905
  183ETHO    C163062   7.147   7.147  12.893
  183ETHO   H1163063   7.162   7.062  12.963
  183ETHO   H1363064   7.114   7.127  12.789
  183ETHO    C263065   7.019   7.208  12.954
  183ETHO   H2163066   6.937   7.137  12.929
  183ETHO   H2363067   6.999   7.307  12.906
  184ETHO    O163068   7.021   7.236  13.090
  184ETHO    C163069   6.913   7.313  13.125
  184ETHO   H1163070   6.927   7.406  13.066
  184ETHO   H1363071   6.821   7.259  13.095
  184ETHO    C263072   6.899   7.345  13.272
  184ETHO   H2163073   6.821   7.424  13.280
  184ETHO   H2363074   6.989   7.395  13.315
  185ETHO    O163075   6.854   7.235  13.352
  185ETHO    C163076   6.759   7.267  13.454
  185ETHO   H1163077   6.804   7.339  13.525
  185ETHO   H1363078   6.681   7.319  13.394
  185ETHO    C263079   6.689   7.144  13.520
  185ETHO   H2163080   6.757   7.056  13.515
  185ETHO   H2363081   6.604   7.116  13.454
  186ETHO    O163082   6.642   7.162  13.655
  186ETHO    C163083   6.526   7.091  13.689
  186ETHO   H1163084   6.444   7.135  13.628
  186ETHO   H1363085   6.554   6.985  13.674
  186ETHO    C263086   6.504   7.114  13.837
  186ETHO   H2163087   6.397   7.098  13.860
  186ETHO   H2363088   6.519   7.222  13.858
  187ETHO    O163089   6.598   7.045  13.922
  187ETHO    C163090   6.556   7.039  14.060
  187ETHO   H1163091   6.446   7.033  14.068
  187ETHO   H1363092   6.599   6.948  14.109
  187ETHO    C263093   6.611   7.166  14.137
  187ETHO   H2163094   6.721   7.186  14.134
  187ETHO   H2363095   6.597   7.144  14.245
  188ETHO    O163096   6.549   7.288  14.103
  188ETHO    C163097   6.421   7.292  14.167
  188ETHO   H1163098   6.414   7.225  14.256
  188ETHO   H1363099   6.351   7.252  14.090
  188ETHO    C263100   6.388   7.427  14.215
  188ETHO   H2163101   6.278   7.423  14.231
  188ETHO   H2363102   6.410   7.495  14.130
  189ETHO    O163103   6.450   7.459  14.336
  189ETHO    C163104   6.560   7.543  14.319
  189ETHO   H1163105   6.623   7.524  14.409
  189ETHO   H1363106   6.626   7.511  14.235
  189ETHO    C263107   6.516   7.689  14.328
  189ETHO   H2163108   6.612   7.741  14.351
  189ETHO   H2363109   6.463   7.695  14.425
  190ETHO    O163110   6.456   7.732  14.213
  190ETHO    C163111   6.408   7.863  14.241
  190ETHO   H1163112   6.491   7.936  14.253
  190ETHO   H1363113   6.350   7.870  14.335
  190ETHO    C263114   6.328   7.924  14.118
  190ETHO   H2163115   6.389   7.902  14.028
  190ETHO   H2363116   6.325   8.035  14.131
  191ETHO    O163117   6.193   7.878  14.106
  191ETHO    C163118   6.105   7.964  14.030
  191ETHO   H1163119   6.104   8.062  14.082
  191ETHO   H1363120   6.141   7.986  13.927
  191ETHO    C263121   5.967   7.906  14.000
  191ETHO   H2163122   5.911   7.992  13.957
  191ETHO   H2363123   5.916   7.881  14.096
  192ETHO    O163124   5.961   7.792  13.912
  192ETHO    C163125   5.829   7.754  13.873
  192ETHO   H1163126   5.778   7.846  13.839
  192ETHO   H1363127   5.755   7.725  13.950
  192ETHO    C263128   5.815   7.637  13.766
  192ETHO   H2163129   5.869   7.668  13.675
  192ETHO   H2363130   5.709   7.629  13.734
  193ETHO    O163131   5.849   7.513  13.820
  193ETHO    C163132   5.948   7.443  13.747
  193ETHO   H1163133   5.928   7.336  13.773
  193ETHO   H1363134   5.933   7.461  13.639
  193ETHO    C263135   6.091   7.489  13.796
  193ETHO   H2163136   6.157   7.400  13.801
  193ETHO   H2363137   6.096   7.537  13.896
  194ETHO    O163138   6.141   7.588  13.704
  194ETHO    C163139   6.282   7.606  13.711
  194ETHO   H1163140   6.310   7.612  13.818
  194ETHO   H1363141   6.309   7.702  13.663
  194ETHO    C263142   6.349   7.498  13.633
  194ETHO   H2163143   6.305   7.396  13.644
  194ETHO   H2363144   6.457   7.477  13.653
  195ETHO    O163145   6.350   7.531  13.498
  195ETHO    C163146   6.390   7.423  13.423
  195ETHO   H1163147   6.469   7.359  13.468
  195ETHO   H1363148   6.299   7.359  13.420
  195ETHO    C263149   6.416   7.465  13.279
  195ETHO   H2163150   6.339   7.519  13.220
  195ETHO   H2363151   6.436   7.366  13.232
  196ETHO    O163152   6.530   7.552  13.284
  196ETHO    C163153   6.562   7.611  13.163
  196ETHO   H1163154   6.595   7.534  13.090
  196ETHO   H1363155   6.476   7.671  13.128
  196ETHO    C263156   6.684   7.703  13.187
  196ETHO   H2163157   6.707   7.735  13.083
  196ETHO   H2363158   6.775   7.644  13.211
  197ETHO    O163159   6.669   7.803  13.285
  197ETHO    C163160   6.784   7.886  13.298
  197ETHO   H1163161   6.876   7.827  13.315
  197ETHO   H1363162   6.805   7.940  13.203
  197ETHO    C263163   6.777   7.997  13.401
  197ETHO   H2163164   6.683   8.056  13.399
  197ETHO   H2363165   6.862   8.067  13.384
  198ETHO    O163166   6.798   7.958  13.535
  198ETHO    C163167   6.686   7.893  13.595
  198ETHO   H1163168   6.617   7.975  13.621
  198ETHO   H1363169   6.644   7.819  13.523
  198ETHO    C263170   6.728   7.827  13.726
  198ETHO   H2163171   6.795   7.897  13.781
  198ETHO   H2363172   6.780   7.733  13.700
  199ETHO    O163173   6.600   7.811  13.806
  199ETHO    C163174   6.630   7.730  13.918
  199ETHO   H1163175   6.552   7.743  13.996
  199ETHO   H1363176   6.727   7.768  13.957
  199ETHO    C263177   6.642   7.575  13.899
  199ETHO   H2163178   6.558   7.547  13.832
  199ETHO   H2363179   6.621   7.551  14.005
  200ETHO    O163180   6.772   7.540  13.856
  200ETHO    C163181   6.783   7.399  13.846
  200ETHO   H1163182   6.720   7.358  13.928
  200ETHO   H1363183   6.722   7.386  13.754
  200ETHO    C263184   6.917   7.331  13.844
  200ETHO   H2163185   6.990   7.379  13.777
  200ETHO   H2363186   6.882   7.229  13.817
  201ETHO    O163187   6.971   7.342  13.979
  201ETHO    C163188   7.094   7.263  13.983
  201ETHO   H1163189   7.168   7.311  14.050
  201ETHO   H1363190   7.131   7.254  13.879
  201ETHO    C263191   7.075   7.121  14.038
  201ETHO   H2163192   7.171   7.065  14.044
  201ETHO   H2363193   6.997   7.072  13.976
  202ETHO    O163194   7.027   7.146  14.172
  202ETHO    C163195   6.975   7.026  14.222
  202ETHO   H1163196   6.916   6.969  14.146
  202ETHO   H1363197   7.067   6.965  14.237
  202ETHO    C263198   6.905   7.035  14.359
  202ETHO   H2163199   6.991   7.066  14.422
  202ETHO   H2363200   6.856   6.939  14.386
  203ETHO    O163201   6.804   7.130  14.364
  203ETHO    C163202   6.725   7.124  14.485
  203ETHO   H1163203   6.657   7.037  14.474
  203ETHO   H1363204   6.657   7.212  14.486
  203ETHO    C263205   6.789   7.107  14.627
  203ETHO   H2163206   6.840   7.009  14.636
  203ETHO   H2363207   6.711   7.107  14.706
  204ETHO    O163208   6.871   7.221  14.645
  204ETHO    C163209   6.970   7.205  14.748
  204ETHO   H1163210   6.935   7.233  14.850
  204ETHO   H1363211   7.005   7.099  14.752
  204ETHO    C263212   7.091   7.300  14.725
  204ETHO   H2163213   7.152   7.290  14.817
  204ETHO   H2363214   7.069   7.409  14.726
  205ETHO    O163215   7.181   7.269  14.620
  205ETHO    C163216   7.138   7.338  14.503
  205ETHO   H1163217   7.139   7.448  14.518
  205ETHO   H1363218   7.034   7.311  14.476
  205ETHO    C263219   7.229   7.311  14.382
  205ETHO   H2163220   7.186   7.340  14.284
  205ETHO   H2363221   7.234   7.200  14.371
  206ETHO    O163222   7.362   7.359  14.385
  206ETHO    C163223   7.427   7.350  14.264
  206ETHO   H1163224   7.447   7.242  14.250
  206ETHO   H1363225   7.374   7.397  14.179
  206ETHO    C263226   7.560   7.416  14.270
  206ETHO   H2163227   7.619   7.421  14.176
  206ETHO   H2363228   7.546   7.520  14.306
  207ETHO    O163229   7.651   7.342  14.352
  207ETHO    C163230   7.779   7.407  14.366
  207ETHO   H1163231   7.821   7.417  14.264
  207ETHO   H1363232   7.847   7.331  14.411
  207ETHO    C263233   7.787   7.544  14.445
  207ETHO   H2163234   7.897   7.556  14.451
  207ETHO   H2363235   7.748   7.518  14.546
  208ETHO    O163236   7.737   7.655  14.388
  208ETHO    C163237   7.761   7.767  14.475
  208ETHO   H1163238   7.701   7.747  14.567
  208ETHO   H1363239   7.869   7.779  14.499
  208ETHO    C263240   7.715   7.896  14.416
  208ETHO   H2163241   7.719   7.975  14.494
  208ETHO   H2363242   7.614   7.877  14.375
  209ETHO    O163243   7.795   7.942  14.307
  209ETHO    C163244   7.765   8.070  14.267
  209ETHO   H1163245   7.776   8.139  14.353
  209ETHO   H1363246   7.655   8.064  14.249
  209ETHO    C263247   7.846   8.112  14.143
  209ETHO   H2163248   7.905   8.025  14.106
  209ETHO   H2363249   7.917   8.194  14.170
  210ETHO    O163250   7.775   8.144  14.023
  210ETHO    C163251   7.864   8.150  13.915
  210ETHO   H1163252   7.928   8.241  13.925
  210ETHO   H1363253   7.928   8.059  13.908
  210ETHO    C263254   7.789   8.160  13.780
  210ETHO   H2163255   7.867   8.189  13.706
  210ETHO   H2363256   7.725   8.249  13.796
  211ETHO    O163257   7.724   8.055  13.728
  211ETHO    C163258   7.643   8.093  13.614
  211ETHO   H1163259   7.699   8.154  13.540
  211ETHO   H1363260   7.614   7.997  13.566
  211ETHO    C263261   7.503   8.158  13.633
  211ETHO   H2163262   7.457   8.111  13.723
  211ETHO   H2363263   7.433   8.165  13.547
  212ETHO    O163264   7.519   8.296  13.666
  212ETHO    C163265   7.521   8.386  13.559
  212ETHO   H1163266   7.584   8.340  13.480
  212ETHO   H1363267   7.415   8.405  13.533
  212ETHO    C263268   7.589   8.512  13.609
  212ETHO   H2163269   7.514   8.555  13.678
  212ETHO   H2363270   7.616   8.579  13.524
  213ETHO    O163271   7.710   8.492  13.671
  213ETHO    C163272   7.742   8.621  13.723
  213ETHO   H1163273   7.750   8.688  13.635
  213ETHO   H1363274   7.656   8.656  13.784
  213ETHO    C263275   7.867   8.612  13.816
  213ETHO   H2163276   7.838   8.549  13.903
  213ETHO   H2363277   7.889   8.715  13.853
  214ETHO    O163278   7.985   8.549  13.771
  214ETHO    C163279   8.081   8.524  13.873
  214ETHO   H1163280   8.053   8.434  13.933
  214ETHO   H1363281   8.068   8.610  13.942
  214ETHO    C263282   8.227   8.508  13.830
  214ETHO   H2163283   8.219   8.464  13.729
  214ETHO   H2363284   8.285   8.437  13.893
  215ETHO    O163285   8.319   8.622  13.828
  215ETHO    C163286   8.452   8.584  13.792
  215ETHO   H1163287   8.485   8.495  13.850
  215ETHO   H1363288   8.450   8.550  13.686
  215ETHO    C263289   8.536   8.704  13.812
  215ETHO   H2163290   8.643   8.676  13.800
  215ETHO   H2363291   8.530   8.723  13.921
  216ETHO    O163292   8.514   8.809  13.724
  216ETHO    C163293   8.587   8.797  13.602
  216ETHO   H1163294   8.528   8.849  13.525
  216ETHO   H1363295   8.590   8.688  13.583
  216ETHO    C263296   8.727   8.868  13.607
  216ETHO   H2163297   8.779   8.819  13.523
  216ETHO   H2363298   8.777   8.837  13.701
  217ETHO    O163299   8.729   9.012  13.586
  217ETHO    C163300   8.777   9.039  13.454
  217ETHO   H1163301   8.868   8.975  13.444
  217ETHO   H1363302   8.708   8.995  13.379
  217ETHO    C263303   8.810   9.184  13.419
  217ETHO   H2163304   8.874   9.195  13.329
  217ETHO   H2363305   8.873   9.230  13.498
  218ETHO    O163306   8.696   9.262  13.384
  218ETHO    C163307   8.727   9.398  13.406
  218ETHO   H1163308   8.783   9.436  13.318
  218ETHO   H1363309   8.785   9.415  13.499
  218ETHO    C263310   8.594   9.467  13.432
  218ETHO   H2163311   8.522   9.443  13.351
  218ETHO   H2363312   8.609   9.577  13.433
  219ETHO    O163313   8.534   9.439  13.569
  219ETHO    C163314   8.425   9.360  13.555
  219ETHO   H1163315   8.361   9.404  13.475
  219ETHO   H1363316   8.461   9.259  13.527
  219ETHO    C263317   8.340   9.338  13.677
  219ETHO   H2163318   8.397   9.284  13.755
  219ETHO   H2363319   8.254   9.276  13.643
  220ETHO    O163320   8.294   9.467  13.718
  220ETHO    C163321   8.159   9.462  13.770
  220ETHO   H1163322   8.096   9.429  13.685
  220ETHO   H1363323   8.132   9.566  13.800
  220ETHO    C263324   8.145   9.367  13.888
  220ETHO   H2163325   8.189   9.268  13.863
  220ETHO   H2363326   8.035   9.353  13.902
  221ETHO    O163327   8.189   9.418  14.016
  221ETHO    C163328   8.332   9.401  14.039
  221ETHO   H1163329   8.351   9.296  14.069
  221ETHO   H1363330   8.379   9.426  13.941
  221ETHO    C263331   8.381   9.499  14.145
  221ETHO   H2163332   8.471   9.466  14.202
  221ETHO   H2363333   8.309   9.516  14.228
  222ETHO    O163334   8.411   9.631  14.096
  222ETHO    C163335   8.550   9.654  14.056
  222ETHO   H1163336   8.611   9.591  14.123
  222ETHO   H1363337   8.565   9.618  13.951
  222ETHO    C263338   8.569   9.803  14.057
  222ETHO   H2163339   8.555   9.833  14.163
  222ETHO   H2363340   8.504   9.868  13.994
  223ETHO    O163341   8.701   9.848  14.020
  223ETHO    C163342   8.815   9.783  14.086
  223ETHO   H1163343   8.806   9.786  14.197
  223ETHO   H1363344   8.811   9.673  14.069
  223ETHO    C263345   8.961   9.827  14.033
  223ETHO   H2163346   9.038   9.768  14.087
  223ETHO   H2363347   8.979   9.935  14.049
  224ETHO    O163348   8.970   9.802  13.895
  224ETHO    C163349   9.104   9.790  13.851
  224ETHO   H1163350   9.160   9.876  13.893
  224ETHO   H1363351   9.145   9.694  13.888
  224ETHO    C263352   9.110   9.798  13.696
  224ETHO   H2163353   9.194   9.865  13.667
  224ETHO   H2363354   9.015   9.849  13.669
  225ETHO    O163355   9.127   9.676  13.625
  225ETHO    C163356   9.107   9.696  13.492
  225ETHO   H1163357   9.179   9.770  13.450
  225ETHO   H1363358   9.000   9.723  13.485
  225ETHO    C263359   9.113   9.568  13.415
  225ETHO   H2163360   9.062   9.571  13.316
  225ETHO   H2363361   9.048   9.495  13.468
  226ETHO    O163362   9.244   9.519  13.397
  226ETHO    C163363   9.236   9.391  13.336
  226ETHO   H1163364   9.337   9.345  13.333
  226ETHO   H1363365   9.175   9.325  13.400
  226ETHO    C263366   9.171   9.377  13.196
  226ETHO   H2163367   9.209   9.280  13.156
  226ETHO   H2363368   9.200   9.458  13.126
  227ETHO    O163369   9.027   9.355  13.198
  227ETHO    C163370   8.981   9.336  13.064
  227ETHO   H1163371   9.067   9.321  12.995
  227ETHO   H1363372   8.939   9.432  13.028
  227ETHO    C263373   8.879   9.220  13.046
  227ETHO   H2163374   8.824   9.236  12.950
  227ETHO   H2363375   8.803   9.217  13.127
  228ETHO    O163376   8.940   9.091  13.026
  228ETHO    C163377   8.853   8.978  13.061
  228ETHO   H1163378   8.810   8.989  13.163
  228ETHO   H1363379   8.775   8.965  12.983
  228ETHO    C263380   8.942   8.848  13.076
  228ETHO   H2163381   8.867   8.772  13.105
  228ETHO   H2363382   9.008   8.871  13.163
  229ETHO    O163383   9.017   8.824  12.958
  229ETHO    C163384   9.115   8.716  12.984
  229ETHO   H1163385   9.145   8.703  13.090
  229ETHO   H1363386   9.201   8.739  12.917
  229ETHO    C263387   9.065   8.582  12.928
  229ETHO   H2163388   9.150   8.511  12.931
  229ETHO   H2363389   9.044   8.583  12.819
  230ETHO    O163390   8.958   8.527  13.004
  230ETHO    C163391   8.920   8.396  12.965
  230ETHO   H1163392   8.874   8.404  12.864
  230ETHO   H1363393   9.011   8.333  12.950
  230ETHO    C263394   8.838   8.327  13.073
  230ETHO   H2163395   8.799   8.231  13.033
  230ETHO   H2363396   8.746   8.384  13.097
  231ETHO    O163397   8.921   8.298  13.183
  231ETHO    C163398   8.862   8.190  13.258
  231ETHO   H1163399   8.853   8.097  13.199
  231ETHO   H1363400   8.762   8.225  13.293
  231ETHO    C263401   8.939   8.158  13.381
  231ETHO   H2163402   8.873   8.101  13.451
  231ETHO   H2363403   8.967   8.251  13.435
  232ETHO    O163404   9.048   8.079  13.343
  232ETHO    C163405   9.117   8.024  13.458
  232ETHO   H1163406   9.169   8.116  13.493
  232ETHO   H1363407   9.037   7.999  13.530
  232ETHO    C263408   9.204   7.902  13.445
  232ETHO   H2163409   9.248   7.861  13.539
  232ETHO   H2363410   9.281   7.923  13.368
  233ETHO    O163411   9.122   7.798  13.397
  233ETHO    C163412   9.180   7.670  13.399
  233ETHO   H1163413   9.264   7.670  13.325
  233ETHO   H1363414   9.217   7.639  13.499
  233ETHO    C263415   9.072   7.566  13.359
  233ETHO   H2163416   8.999   7.548  13.442
  233ETHO   H2363417   9.133   7.473  13.356
  234ETHO    O163418   9.001   7.591  13.231
  234ETHO    C163419   8.921   7.480  13.187
  234ETHO   H1163420   8.973   7.381  13.180
  234ETHO   H1363421   8.838   7.465  13.260
  234ETHO    C263422   8.857   7.500  13.052
  234ETHO   H2163423   8.930   7.470  12.974
  234ETHO   H2363424   8.827   7.605  13.033
  235ETHO    O163425   8.740   7.425  13.047
  235ETHO    C163426   8.690   7.416  12.915
  235ETHO   H1163427   8.681   7.514  12.863
  235ETHO   H1363428   8.762   7.359  12.853
  235ETHO    C263429   8.548   7.354  12.910
  235ETHO   H2163430   8.478   7.403  12.839
  235ETHO   H2363431   8.514   7.371  13.014
  236ETHO    O163432   8.552   7.218  12.898
  236ETHO    C163433   8.421   7.159  12.889
  236ETHO   H1163434   8.436   7.054  12.854
  236ETHO   H1363435   8.362   7.216  12.815
  236ETHO    C263436   8.356   7.142  13.023
  236ETHO   H2163437   8.437   7.121  13.097
  236ETHO   H2363438   8.295   7.050  13.038
  237ETHO    O163439   8.287   7.256  13.067
  237ETHO    C163440   8.212   7.241  13.190
  237ETHO   H1163441   8.154   7.334  13.210
  237ETHO   H1363442   8.147   7.152  13.175
  237ETHO    C263443   8.311   7.229  13.308
  237ETHO   H2163444   8.371   7.135  13.307
  237ETHO   H2363445   8.248   7.227  13.399
  238ETHO    O163446   8.394   7.340  13.321
  238ETHO    C163447   8.464   7.339  13.447
  238ETHO   H1163448   8.495   7.235  13.472
  238ETHO   H1363449   8.398   7.376  13.528
  238ETHO    C263450   8.581   7.435  13.440
  238ETHO   H2163451   8.552   7.521  13.377
  238ETHO   H2363452   8.659   7.386  13.378
  239ETHO    O163453   8.620   7.499  13.559
  239ETHO    C163454   8.710   7.419  13.646
  239ETHO   H1163455   8.662   7.320  13.665
  239ETHO   H1363456   8.801   7.409  13.584
  239ETHO    C263457   8.753   7.495  13.773
  239ETHO   H2163458   8.837   7.446  13.827
  239ETHO   H2363459   8.787   7.598  13.751
  240ETHO    O163460   8.655   7.505  13.880
  240ETHO    C163461   8.707   7.579  13.992
  240ETHO   H1163462   8.616   7.624  14.037
  240ETHO   H1363463   8.765   7.664  13.952
  240ETHO    C263464   8.783   7.492  14.095
  240ETHO   H2163465   8.810   7.563  14.176
  240ETHO   H2363466   8.878   7.442  14.063
  241ETHO    O163467   8.687   7.396  14.149
  241ETHO    C163468   8.751   7.307  14.235
  241ETHO   H1163469   8.821   7.250  14.170
  241ETHO   H1363470   8.808   7.361  14.314
  241ETHO    C263471   8.654   7.212  14.313
  241ETHO   H2163472   8.710   7.120  14.339
  241ETHO   H2363473   8.576   7.182  14.240
  242ETHO    O163474   8.595   7.279  14.425
  242ETHO    C163475   8.471   7.215  14.465
  242ETHO   H1163476   8.418   7.168  14.379
  242ETHO   H1363477   8.405   7.289  14.514
  242ETHO    C263478   8.503   7.113  14.581
  242ETHO   H2163479   8.407   7.085  14.630
  242ETHO   H2363480   8.562   7.167  14.658
  243ETHO    O163481   8.586   7.001  14.548
  243ETHO    C163482   8.585   6.893  14.644
  243ETHO   H1163483   8.481   6.859  14.665
  243ETHO   H1363484   8.633   6.804  14.597
  243ETHO    C263485   8.664   6.921  14.772
  243ETHO   H2163486   8.773   6.934  14.756
  243ETHO   H2363487   8.644   6.838  14.843
  244ETHO    O163488   8.608   7.032  14.849
  244ETHO    C163489   8.690   7.064  14.961
  244ETHO   H1163490   8.674   7.173  14.974
  244ETHO   H1363491   8.795   7.052  14.928
  244ETHO    C263492   8.676   6.996  15.093
  244ETHO   H2163493   8.767   7.027  15.149
  244ETHO   H2363494   8.680   6.887  15.077
  245ETHO    O163495   8.566   7.043  15.174
  245ETHO    C163496   8.431   7.012  15.125
  245ETHO   H1163497   8.380   7.102  15.165
  245ETHO   H1363498   8.412   7.024  15.016
  245ETHO    C263499   8.389   6.870  15.185
  245ETHO   H2163500   8.281   6.858  15.159
  245ETHO   H2363501   8.405   6.869  15.295
  246ETHO    O163502   8.471   6.777  15.127
  246ETHO    C163503   8.443   6.649  15.180
  246ETHO   H1163504   8.335   6.629  15.161
  246ETHO   H1363505   8.464   6.645  15.289
  246ETHO    C263506   8.519   6.534  15.113
  246ETHO   H2163507   8.543   6.451  15.184
  246ETHO   H2363508   8.622   6.569  15.093
  247ETHO    O163509   8.450   6.487  15.001
  247ETHO    C163510   8.444   6.577  14.887
  247ETHO   H1163511   8.347   6.630  14.886
  247ETHO   H1363512   8.538   6.637  14.877
  247ETHO    C263513   8.451   6.484  14.765
  247ETHO   H2163514   8.551   6.436  14.765
  247ETHO   H2363515   8.370   6.407  14.759
  248ETHO    O163516   8.442   6.562  14.646
  248ETHO    C163517   8.470   6.485  14.533
  248ETHO   H1163518   8.572   6.507  14.495
  248ETHO   H1363519   8.466   6.377  14.561
  248ETHO    C263520   8.364   6.514  14.425
  248ETHO   H2163521   8.389   6.612  14.380
  248ETHO   H2363522   8.263   6.528  14.471
  249ETHO    O163523   8.355   6.410  14.328
  249ETHO    C163524   8.306   6.453  14.202
  249ETHO   H1163525   8.247   6.548  14.201
  249ETHO   H1363526   8.401   6.485  14.154
  249ETHO    C263527   8.246   6.347  14.106
  249ETHO   H2163528   8.292   6.254  14.146
  249ETHO   H2363529   8.272   6.378  14.003
  250ETHO    O163530   8.108   6.324  14.114
  250ETHO    C163531   8.074   6.203  14.049
  250ETHO   H1163532   8.162   6.138  14.030
  250ETHO   H1363533   7.996   6.162  14.117
  250ETHO    C263534   8.004   6.221  13.911
  250ETHO   H2163535   8.084   6.252  13.840
  250ETHO   H2363536   7.934   6.306  13.924
  251ETHO    O163537   7.943   6.105  13.858
  251ETHO    C163538   7.877   6.144  13.735
  251ETHO   H1163539   7.880   6.057  13.666
  251ETHO   H1363540   7.929   6.230  13.688
  251ETHO    C263541   7.726   6.183  13.742
  251ETHO   H2163542   7.662   6.106  13.791
  251ETHO   H2363543   7.698   6.196  13.635
  252ETHO    O163544   7.704   6.305  13.818
  252ETHO    C163545   7.574   6.361  13.807
  252ETHO   H1163546   7.554   6.397  13.704
  252ETHO   H1363547   7.499   6.284  13.834
  252ETHO    C263548   7.551   6.488  13.896
  252ETHO   H2163549   7.558   6.476  14.006
  252ETHO   H2363550   7.444   6.512  13.878
  253ETHO    O163551   7.650   6.590  13.853
  253ETHO    C163552   7.629   6.652  13.730
  253ETHO   H1163553   7.530   6.700  13.746
  253ETHO   H1363554   7.629   6.580  13.645
  253ETHO    C263555   7.729   6.762  13.702
  253ETHO   H2163556   7.742   6.812  13.801
  253ETHO   H2363557   7.681   6.833  13.631
  254ETHO    O163558   7.852   6.723  13.653
  254ETHO    C163559   7.949   6.824  13.640
  254ETHO   H1163560   7.955   6.873  13.739
  254ETHO   H1363561   8.049   6.778  13.627
  254ETHO    C263562   7.910   6.926  13.527
  254ETHO   H2163563   7.875   6.875  13.435
  254ETHO   H2363564   8.007   6.970  13.496
  255ETHO    O163565   7.827   7.028  13.583
  255ETHO    C163566   7.800   7.127  13.481
  255ETHO   H1163567   7.703   7.114  13.427
  255ETHO   H1363568   7.870   7.137  13.395
  255ETHO    C263569   7.788   7.275  13.530
  255ETHO   H2163570   7.710   7.261  13.609
  255ETHO   H2363571   7.754   7.343  13.448
  256ETHO    O163572   7.906   7.329  13.591
  256ETHO    C163573   7.883   7.447  13.668
  256ETHO   H1163574   7.847   7.527  13.599
  256ETHO   H1363575   7.803   7.434  13.744
  256ETHO    C263576   8.017   7.484  13.737
  256ETHO   H2163577   8.011   7.578  13.796
  256ETHO   H2363578   8.097   7.490  13.661
  257ETHO    O163579   8.056   7.379  13.829
  257ETHO    C163580   8.173   7.415  13.896
  257ETHO   H1163581   8.156   7.516  13.939
  257ETHO   H1363582   8.250   7.434  13.819
  257ETHO    C263583   8.231   7.315  13.994
  257ETHO   H2163584   8.340   7.336  13.997
  257ETHO   H2363585   8.222   7.215  13.946
  258ETHO    O163586   8.181   7.319  14.125
  258ETHO    C163587   8.042   7.286  14.133
  258ETHO   H1163588   8.012   7.308  14.238
  258ETHO   H1363589   7.980   7.354  14.069
  258ETHO    C263590   8.003   7.139  14.114
  258ETHO   H2163591   8.019   7.110  14.008
  258ETHO   H2363592   7.894   7.133  14.136
  259ETHO    O163593   8.067   7.059  14.204
  259ETHO    C163594   8.010   6.931  14.190
  259ETHO   H1163595   7.908   6.931  14.234
  259ETHO   H1363596   7.996   6.912  14.081
  259ETHO    C263597   8.098   6.821  14.245
  259ETHO   H2163598   8.042   6.728  14.221
  259ETHO   H2363599   8.119   6.809  14.354
  260ETHO    O163600   8.227   6.800  14.185
  260ETHO    C163601   8.324   6.876  14.250
  260ETHO   H1163602   8.293   6.981  14.269
  260ETHO   H1363603   8.321   6.840  14.354
  260ETHO    C263604   8.459   6.870  14.174
  260ETHO   H2163605   8.539   6.926  14.228
  260ETHO   H2363606   8.439   6.920  14.077
  261ETHO    O163607   8.508   6.739  14.150
  261ETHO    C163608   8.649   6.745  14.124
  261ETHO   H1163609   8.675   6.680  14.038
  261ETHO   H1363610   8.676   6.849  14.096
  261ETHO    C263611   8.721   6.708  14.255
  261ETHO   H2163612   8.703   6.783  14.335
  261ETHO   H2363613   8.829   6.702  14.232
  262ETHO    O163614   8.700   6.581  14.307
  262ETHO    C163615   8.707   6.477  14.219
  262ETHO   H1163616   8.801   6.478  14.158
  262ETHO   H1363617   8.632   6.479  14.137
  262ETHO    C263618   8.682   6.333  14.261
  262ETHO   H2163619   8.671   6.269  14.171
  262ETHO   H2363620   8.592   6.330  14.326
  263ETHO    O163621   8.793   6.268  14.333
  263ETHO    C163622   8.749   6.142  14.387
  263ETHO   H1163623   8.737   6.084  14.292
  263ETHO   H1363624   8.650   6.161  14.434
  263ETHO    C263625   8.843   6.059  14.474
  263ETHO   H2163626   8.948   6.066  14.439
  263ETHO   H2363627   8.808   5.956  14.451
  264ETHO    O163628   8.834   6.076  14.609
  264ETHO    C163629   8.943   6.001  14.673
  264ETHO   H1163630   9.040   6.013  14.621
  264ETHO   H1363631   8.917   5.895  14.694
  264ETHO    C263632   8.965   6.056  14.819
  264ETHO   H2163633   9.039   5.987  14.865
  264ETHO   H2363634   8.869   6.052  14.875
  265ETHO    O163635   9.004   6.190  14.821
  265ETHO    C163636   9.047   6.228  14.947
  265ETHO   H1163637   9.037   6.338  14.959
  265ETHO   H1363638   9.002   6.184  15.040
  265ETHO    C263639   9.200   6.212  14.963
  265ETHO   H2163640   9.242   6.275  15.044
  265ETHO   H2363641   9.250   6.245  14.869
  265ETHO    OZ63642   9.245   6.077  14.982
  265ETHO   HZ163643   9.329   6.083  15.028
    1ETHO    O163644  17.394   4.009   8.582
    1ETHO   HO163645  17.466   3.989   8.522
    1ETHO    C163646  17.287   4.053   8.496
    1ETHO   H1163647  17.306   4.154   8.454
    1ETHO   H1363648  17.197   4.057   8.562
    1ETHO    C263649  17.266   3.947   8.383
    1ETHO   H2163650  17.165   3.979   8.350
    1ETHO   H2363651  17.253   3.843   8.421
    2ETHO    O163652  17.346   3.968   8.270
    2ETHO    C163653  17.307   3.875   8.169
    2ETHO   H1163654  17.200   3.891   8.144
    2ETHO   H1363655  17.370   3.914   8.086
    2ETHO    C263656  17.343   3.727   8.202
    2ETHO   H2163657  17.441   3.716   8.252
    2ETHO   H2363658  17.344   3.664   8.110
    3ETHO    O163659  17.245   3.658   8.277
    3ETHO    C163660  17.279   3.521   8.312
    3ETHO   H1163661  17.384   3.520   8.348
    3ETHO   H1363662  17.282   3.460   8.219
    3ETHO    C263663  17.176   3.463   8.410
    3ETHO   H2163664  17.206   3.356   8.423
    3ETHO   H2363665  17.073   3.486   8.378
    4ETHO    O163666  17.181   3.541   8.534
    4ETHO    C163667  17.107   3.475   8.635
    4ETHO   H1163668  17.001   3.502   8.615
    4ETHO   H1363669  17.118   3.365   8.633
    4ETHO    C263670  17.142   3.531   8.773
    4ETHO   H2163671  17.252   3.535   8.784
    4ETHO   H2363672  17.089   3.467   8.847
    5ETHO    O163673  17.084   3.661   8.795
    5ETHO    C163674  17.085   3.691   8.939
    5ETHO   H1163675  17.054   3.602   8.998
    5ETHO   H1363676  17.191   3.704   8.968
    5ETHO    C263677  16.998   3.809   8.993
    5ETHO   H2163678  17.018   3.900   8.933
    5ETHO   H2363679  17.027   3.825   9.099
    6ETHO    O163680  16.859   3.778   8.982
    6ETHO    C163681  16.778   3.884   9.025
    6ETHO   H1163682  16.823   3.985   9.017
    6ETHO   H1363683  16.689   3.873   8.960
    6ETHO    C263684  16.745   3.868   9.173
    6ETHO   H2163685  16.751   3.761   9.203
    6ETHO   H2363686  16.642   3.909   9.188
    7ETHO    O163687  16.835   3.950   9.253
    7ETHO    C163688  16.834   3.902   9.388
    7ETHO   H1163689  16.727   3.883   9.413
    7ETHO   H1363690  16.892   3.808   9.395
    7ETHO    C263691  16.904   3.998   9.488
    7ETHO   H2163692  17.004   4.024   9.448
    7ETHO   H2363693  16.916   3.933   9.577
    8ETHO    O163694  16.835   4.119   9.527
    8ETHO    C163695  16.922   4.213   9.586
    8ETHO   H1163696  16.987   4.254   9.506
    8ETHO   H1363697  16.997   4.155   9.644
    8ETHO    C263698  16.841   4.320   9.661
    8ETHO   H2163699  16.766   4.363   9.592
    8ETHO   H2363700  16.904   4.406   9.695
    9ETHO    O163701  16.779   4.247   9.766
    9ETHO    C163702  16.696   4.330   9.846
    9ETHO   H1163703  16.661   4.265   9.930
    9ETHO   H1363704  16.753   4.414   9.891
    9ETHO    C263705  16.581   4.386   9.764
    9ETHO   H2163706  16.485   4.399   9.819
    9ETHO   H2363707  16.558   4.311   9.685
   10ETHO    O163708  16.617   4.504   9.691
   10ETHO    C163709  16.499   4.564   9.629
   10ETHO   H1163710  16.411   4.561   9.696
   10ETHO   H1363711  16.481   4.515   9.531
   10ETHO    C263712  16.519   4.711   9.599
   10ETHO   H2163713  16.607   4.734   9.535
   10ETHO   H2363714  16.527   4.774   9.690
   11ETHO    O163715  16.404   4.755   9.524
   11ETHO    C163716  16.434   4.880   9.460
   11ETHO   H1163717  16.524   4.875   9.396
   11ETHO   H1363718  16.353   4.896   9.385
   11ETHO    C263719  16.441   5.006   9.555
   11ETHO   H2163720  16.520   4.995   9.632
   11ETHO   H2363721  16.468   5.100   9.501
   12ETHO    O163722  16.314   5.048   9.603
   12ETHO    C163723  16.291   4.982   9.725
   12ETHO   H1163724  16.385   4.986   9.784
   12ETHO   H1363725  16.273   4.874   9.709
   12ETHO    C263726  16.167   5.039   9.802
   12ETHO   H2163727  16.166   5.149   9.789
   12ETHO   H2363728  16.192   5.011   9.907
   13ETHO    O163729  16.051   4.974   9.755
   13ETHO    C163730  15.936   5.012   9.833
   13ETHO   H1163731  15.960   5.096   9.902
   13ETHO   H1363732  15.868   5.067   9.765
   13ETHO    C263733  15.887   4.896   9.920
   13ETHO   H2163734  15.807   4.936   9.985
   13ETHO   H2363735  15.970   4.848   9.976
   14ETHO    O163736  15.816   4.816   9.833
   14ETHO    C163737  15.751   4.713   9.905
   14ETHO   H1163738  15.662   4.759   9.953
   14ETHO   H1363739  15.814   4.667   9.985
   14ETHO    C263740  15.702   4.596   9.811
   14ETHO   H2163741  15.652   4.635   9.721
   14ETHO   H2363742  15.636   4.519   9.855
   15ETHO    O163743  15.822   4.529   9.776
   15ETHO    C163744  15.794   4.425   9.687
   15ETHO   H1163745  15.726   4.344   9.722
   15ETHO   H1363746  15.749   4.484   9.604
   15ETHO    C263747  15.931   4.365   9.645
   15ETHO   H2163748  15.927   4.292   9.561
   15ETHO   H2363749  16.002   4.443   9.612
   16ETHO    O163750  15.996   4.294   9.752
   16ETHO    C163751  16.121   4.237   9.715
   16ETHO   H1163752  16.105   4.156   9.640
   16ETHO   H1363753  16.197   4.305   9.671
   16ETHO    C263754  16.183   4.177   9.841
   16ETHO   H2163755  16.245   4.086   9.827
   16ETHO   H2363756  16.106   4.152   9.917
   17ETHO    O163757  16.264   4.281   9.895
   17ETHO    C163758  16.268   4.267  10.035
   17ETHO   H1163759  16.169   4.303  10.069
   17ETHO   H1363760  16.291   4.161  10.060
   17ETHO    C263761  16.370   4.346  10.113
   17ETHO   H2163762  16.350   4.334  10.222
   17ETHO   H2363763  16.365   4.455  10.092
   18ETHO    O163764  16.509   4.304  10.094
   18ETHO    C163765  16.594   4.353  10.194
   18ETHO   H1163766  16.555   4.324  10.294
   18ETHO   H1363767  16.694   4.306  10.183
   18ETHO    C263768  16.623   4.507  10.200
   18ETHO   H2163769  16.666   4.541  10.297
   18ETHO   H2363770  16.527   4.560  10.185
   19ETHO    O163771  16.714   4.533  10.093
   19ETHO    C163772  16.741   4.674  10.076
   19ETHO   H1163773  16.676   4.744  10.133
   19ETHO   H1363774  16.728   4.685   9.966
   19ETHO    C263775  16.892   4.695  10.100
   19ETHO   H2163776  16.952   4.632  10.031
   19ETHO   H2363777  16.910   4.664  10.205
   20ETHO    O163778  16.925   4.834  10.082
   20ETHO    C163779  17.024   4.886  10.165
   20ETHO   H1163780  16.977   4.901  10.265
   20ETHO   H1363781  17.106   4.813  10.181
   20ETHO    C263782  17.071   5.026  10.120
   20ETHO   H2163783  16.973   5.071  10.096
   20ETHO   H2363784  17.144   5.036  10.036
   21ETHO    O163785  17.118   5.104  10.227
   21ETHO    C163786  17.177   5.228  10.191
   21ETHO   H1163787  17.127   5.305  10.255
   21ETHO   H1363788  17.176   5.262  10.085
   21ETHO    C263789  17.324   5.226  10.245
   21ETHO   H2163790  17.320   5.185  10.348
   21ETHO   H2363791  17.362   5.329  10.233
   22ETHO    O163792  17.397   5.132  10.173
   22ETHO    C163793  17.538   5.132  10.213
   22ETHO   H1163794  17.555   5.210  10.290
   22ETHO   H1363795  17.568   5.034  10.256
   22ETHO    C263796  17.619   5.151  10.083
   22ETHO   H2163797  17.561   5.231  10.032
   22ETHO   H2363798  17.722   5.183  10.110
   23ETHO    O163799  17.634   5.033  10.002
   23ETHO    C163800  17.566   5.045   9.880
   23ETHO   H1163801  17.620   5.128   9.830
   23ETHO   H1363802  17.465   5.091   9.886
   23ETHO    C263803  17.573   4.917   9.790
   23ETHO   H2163804  17.680   4.888   9.779
   23ETHO   H2363805  17.546   4.961   9.692
   24ETHO    O163806  17.490   4.807   9.805
   24ETHO    C163807  17.544   4.698   9.726
   24ETHO   H1163808  17.506   4.708   9.623
   24ETHO   H1363809  17.654   4.695   9.717
   24ETHO    C263810  17.496   4.567   9.791
   24ETHO   H2163811  17.505   4.564   9.902
   24ETHO   H2363812  17.562   4.489   9.748
   25ETHO    O163813  17.355   4.548   9.762
   25ETHO    C163814  17.318   4.414   9.788
   25ETHO   H1163815  17.395   4.354   9.841
   25ETHO   H1363816  17.289   4.366   9.693
   25ETHO    C263817  17.188   4.400   9.871
   25ETHO   H2163818  17.103   4.443   9.814
   25ETHO   H2363819  17.217   4.470   9.953
   26ETHO    O163820  17.166   4.270   9.918
   26ETHO    C163821  17.055   4.275  10.011
   26ETHO   H1163822  17.072   4.320  10.112
   26ETHO   H1363823  16.976   4.343   9.970
   26ETHO    C263824  16.982   4.143  10.024
   26ETHO   H2163825  16.956   4.110   9.921
   26ETHO   H2363826  16.885   4.163  10.075
   27ETHO    O163827  17.059   4.044  10.089
   27ETHO    C163828  16.974   3.936  10.108
   27ETHO   H1163829  16.928   3.896  10.016
   27ETHO   H1363830  16.898   3.969  10.182
   27ETHO    C263831  17.053   3.819  10.169
   27ETHO   H2163832  17.120   3.773  10.093
   27ETHO   H2363833  16.990   3.732  10.196
   28ETHO    O163834  17.136   3.856  10.270
   28ETHO    C163835  17.205   3.744  10.329
   28ETHO   H1163836  17.217   3.666  10.252
   28ETHO   H1363837  17.310   3.772  10.352
   28ETHO    C263838  17.141   3.679  10.466
   28ETHO   H2163839  17.210   3.599  10.501
   28ETHO   H2363840  17.042   3.638  10.438
   29ETHO    O163841  17.122   3.782  10.567
   29ETHO    C163842  17.004   3.850  10.546
   29ETHO   H1163843  16.927   3.777  10.581
   29ETHO   H1363844  16.979   3.864  10.439
   29ETHO    C263845  17.002   3.973  10.637
   29ETHO   H2163846  17.042   3.948  10.738
   29ETHO   H2363847  16.894   3.992  10.659
   30ETHO    O163848  17.075   4.086  10.590
   30ETHO    C163849  17.046   4.125  10.454
   30ETHO   H1163850  17.096   4.059  10.379
   30ETHO   H1363851  16.937   4.107  10.444
   30ETHO    C263852  17.087   4.272  10.411
   30ETHO   H2163853  17.088   4.283  10.300
   30ETHO   H2363854  17.195   4.271  10.437
   31ETHO    O163855  17.019   4.377  10.473
   31ETHO    C163856  17.035   4.495  10.409
   31ETHO   H1163857  17.143   4.503  10.384
   31ETHO   H1363858  16.982   4.486  10.311
   31ETHO    C263859  16.995   4.613  10.497
   31ETHO   H2163860  17.072   4.683  10.459
   31ETHO   H2363861  17.008   4.590  10.605
   32ETHO    O163862  16.860   4.651  10.463
   32ETHO    C163863  16.827   4.774  10.527
   32ETHO   H1163864  16.814   4.746  10.634
   32ETHO   H1363865  16.900   4.856  10.513
   32ETHO    C263866  16.696   4.830  10.468
   32ETHO   H2163867  16.725   4.824  10.361
   32ETHO   H2363868  16.686   4.938  10.491
   33ETHO    O163869  16.584   4.754  10.503
   33ETHO    C163870  16.462   4.807  10.437
   33ETHO   H1163871  16.426   4.880  10.513
   33ETHO   H1363872  16.490   4.860  10.344
   33ETHO    C263873  16.355   4.697  10.426
   33ETHO   H2163874  16.398   4.599  10.397
   33ETHO   H2363875  16.280   4.732  10.352
   34ETHO    O163876  16.282   4.687  10.549
   34ETHO    C163877  16.170   4.605  10.535
   34ETHO   H1163878  16.192   4.503  10.575
   34ETHO   H1363879  16.133   4.604  10.430
   34ETHO    C263880  16.051   4.650  10.622
   34ETHO   H2163881  16.038   4.760  10.624
   34ETHO   H2363882  16.072   4.606  10.722
   35ETHO    O163883  15.929   4.584  10.585
   35ETHO    C163884  15.824   4.633  10.679
   35ETHO   H1163885  15.862   4.609  10.781
   35ETHO   H1363886  15.826   4.744  10.678
   35ETHO    C263887  15.677   4.579  10.689
   35ETHO   H2163888  15.646   4.580  10.796
   35ETHO   H2363889  15.685   4.470  10.666
   36ETHO    O163890  15.583   4.649  10.610
   36ETHO    C163891  15.446   4.623  10.644
   36ETHO   H1163892  15.397   4.710  10.596
   36ETHO   H1363893  15.429   4.639  10.753
   36ETHO    C263894  15.377   4.493  10.599
   36ETHO   H2163895  15.399   4.482  10.491
   36ETHO   H2363896  15.268   4.502  10.615
   37ETHO    O163897  15.423   4.376  10.660
   37ETHO    C163898  15.331   4.276  10.615
   37ETHO   H1163899  15.229   4.286  10.659
   37ETHO   H1363900  15.301   4.288  10.509
   37ETHO    C263901  15.380   4.139  10.649
   37ETHO   H2163902  15.299   4.069  10.621
   37ETHO   H2363903  15.403   4.121  10.756
   38ETHO    O163904  15.495   4.101  10.578
   38ETHO    C163905  15.515   3.957  10.599
   38ETHO   H1163906  15.421   3.908  10.567
   38ETHO   H1363907  15.515   3.938  10.709
   38ETHO    C263908  15.637   3.909  10.525
   38ETHO   H2163909  15.674   3.809  10.553
   38ETHO   H2363910  15.716   3.983  10.552
   39ETHO    O163911  15.595   3.908  10.383
   39ETHO    C163912  15.697   3.861  10.295
   39ETHO   H1163913  15.773   3.942  10.293
   39ETHO   H1363914  15.748   3.770  10.333
   39ETHO    C263915  15.648   3.839  10.151
   39ETHO   H2163916  15.738   3.823  10.088
   39ETHO   H2363917  15.595   3.932  10.121
   40ETHO    O163918  15.557   3.729  10.134
   40ETHO    C163919  15.611   3.607  10.177
   40ETHO   H1163920  15.603   3.603  10.288
   40ETHO   H1363921  15.719   3.607  10.150
   40ETHO    C263922  15.544   3.482  10.108
   40ETHO   H2163923  15.607   3.396  10.141
   40ETHO   H2363924  15.546   3.490   9.997
   41ETHO    O163925  15.419   3.456  10.154
   41ETHO    C163926  15.368   3.333  10.104
   41ETHO   H1163927  15.399   3.318   9.999
   41ETHO   H1363928  15.421   3.256  10.165
   41ETHO    C263929  15.213   3.323  10.122
   41ETHO   H2163930  15.168   3.261  10.042
   41ETHO   H2363931  15.162   3.421  10.121
   42ETHO    O163932  15.191   3.254  10.239
   42ETHO    C163933  15.220   3.327  10.357
   42ETHO   H1163934  15.322   3.370  10.359
   42ETHO   H1363935  15.153   3.416  10.354
   42ETHO    C263936  15.182   3.254  10.484
   42ETHO   H2163937  15.237   3.299  10.569
   42ETHO   H2363938  15.220   3.151  10.468
   43ETHO    O163939  15.039   3.272  10.497
   43ETHO    C163940  14.975   3.207  10.611
   43ETHO   H1163941  14.959   3.099  10.590
   43ETHO   H1363942  15.047   3.218  10.695
   43ETHO    C263943  14.841   3.271  10.647
   43ETHO   H2163944  14.807   3.212  10.735
   43ETHO   H2363945  14.774   3.267  10.559
   44ETHO    O163946  14.850   3.402  10.689
   44ETHO    C163947  14.721   3.447  10.730
   44ETHO   H1163948  14.642   3.411  10.662
   44ETHO   H1363949  14.697   3.426  10.837
   44ETHO    C263950  14.732   3.597  10.707
   44ETHO   H2163951  14.805   3.646  10.775
   44ETHO   H2363952  14.634   3.641  10.736
   45ETHO    O163953  14.750   3.634  10.572
   45ETHO    C163954  14.739   3.775  10.546
   45ETHO   H1163955  14.778   3.833  10.632
   45ETHO   H1363956  14.640   3.809  10.510
   45ETHO    C263957  14.833   3.807  10.426
   45ETHO   H2163958  14.780   3.880  10.362
   45ETHO   H2363959  14.855   3.717  10.364
   46ETHO    O163960  14.955   3.873  10.467
   46ETHO    C163961  15.055   3.864  10.362
   46ETHO   H1163962  15.092   3.759  10.353
   46ETHO   H1363963  15.003   3.899  10.270
   46ETHO    C263964  15.182   3.945  10.387
   46ETHO   H2163965  15.258   3.913  10.312
   46ETHO   H2363966  15.222   3.914  10.486
   47ETHO    O163967  15.146   4.082  10.384
   47ETHO    C163968  15.182   4.148  10.259
   47ETHO   H1163969  15.175   4.068  10.182
   47ETHO   H1363970  15.289   4.177  10.251
   47ETHO    C263971  15.092   4.263  10.220
   47ETHO   H2163972  15.152   4.342  10.170
   47ETHO   H2363973  15.045   4.313  10.308
   48ETHO    O163974  14.991   4.229  10.133
   48ETHO    C163975  14.869   4.188  10.196
   48ETHO   H1163976  14.901   4.118  10.276
   48ETHO   H1363977  14.823   4.276  10.246
   48ETHO    C263978  14.763   4.114  10.114
   48ETHO   H2163979  14.808   4.025  10.064
   48ETHO   H2363980  14.672   4.079  10.169
   49ETHO    O163981  14.722   4.198  10.006
   49ETHO    C163982  14.631   4.129   9.922
   49ETHO   H1163983  14.536   4.108   9.976
   49ETHO   H1363984  14.682   4.033   9.896
   49ETHO    C263985  14.585   4.201   9.795
   49ETHO   H2163986  14.529   4.122   9.741
   49ETHO   H2363987  14.673   4.221   9.730
   50ETHO    O163988  14.503   4.314   9.823
   50ETHO    C163989  14.432   4.358   9.706
   50ETHO   H1163990  14.488   4.425   9.638
   50ETHO   H1363991  14.389   4.274   9.647
   50ETHO    C263992  14.327   4.449   9.768
   50ETHO   H2163993  14.303   4.521   9.687
   50ETHO   H2363994  14.362   4.496   9.862
   51ETHO    O163995  14.212   4.369   9.813
   51ETHO    C163996  14.102   4.449   9.821
   51ETHO   H1163997  14.072   4.494   9.724
   51ETHO   H1363998  14.125   4.524   9.900
   51ETHO    C263999  13.978   4.366   9.861
   51ETHO   H2164000  13.891   4.429   9.890
   51ETHO   H2364001  14.000   4.305   9.951
   52ETHO    O164002  13.937   4.268   9.761
   52ETHO    C164003  13.821   4.191   9.805
   52ETHO   H1164004  13.846   4.131   9.895
   52ETHO   H1364005  13.730   4.254   9.810
   52ETHO    C264006  13.796   4.090   9.694
   52ETHO   H2164007  13.717   4.019   9.725
   52ETHO   H2364008  13.886   4.032   9.665
   53ETHO    O164009  13.749   4.163   9.586
   53ETHO    C164010  13.722   4.067   9.480
   53ETHO   H1164011  13.816   4.037   9.430
   53ETHO   H1364012  13.672   3.974   9.514
   53ETHO    C264013  13.625   4.133   9.385
   53ETHO   H2164014  13.650   4.090   9.285
   53ETHO   H2364015  13.643   4.242   9.384
   54ETHO    O164016  13.495   4.096   9.428
   54ETHO    C164017  13.401   4.167   9.347
   54ETHO   H1164018  13.419   4.276   9.361
   54ETHO   H1364019  13.410   4.141   9.239
   54ETHO    C264020  13.255   4.142   9.388
   54ETHO   H2164021  13.179   4.203   9.334
   54ETHO   H2364022  13.250   4.155   9.498
   55ETHO    O164023  13.228   4.007   9.359
   55ETHO    C164024  13.173   3.997   9.224
   55ETHO   H1164025  13.084   4.064   9.214
   55ETHO   H1364026  13.255   4.022   9.154
   55ETHO    C264027  13.129   3.857   9.182
   55ETHO   H2164028  13.059   3.814   9.257
   55ETHO   H2364029  13.086   3.867   9.080
   56ETHO    O164030  13.235   3.765   9.156
   56ETHO    C164031  13.174   3.631   9.133
   56ETHO   H1164032  13.072   3.639   9.090
   56ETHO   H1364033  13.159   3.587   9.233
   56ETHO    C264034  13.254   3.543   9.044
   56ETHO   H2164035  13.275   3.591   8.946
   56ETHO   H2364036  13.188   3.455   9.023
   57ETHO    O164037  13.370   3.484   9.099
   57ETHO    C164038  13.414   3.371   9.021
   57ETHO   H1164039  13.345   3.284   9.021
   57ETHO   H1364040  13.399   3.409   8.917
   57ETHO    C264041  13.554   3.331   9.057
   57ETHO   H2164042  13.610   3.427   9.067
   57ETHO   H2364043  13.600   3.275   8.973
   58ETHO    O164044  13.554   3.245   9.170
   58ETHO    C164045  13.682   3.256   9.234
   58ETHO   H1164046  13.700   3.354   9.283
   58ETHO   H1364047  13.760   3.254   9.155
   58ETHO    C264048  13.712   3.136   9.327
   58ETHO   H2164049  13.643   3.146   9.414
   58ETHO   H2364050  13.812   3.145   9.374
   59ETHO    O164051  13.696   3.013   9.270
   59ETHO    C164052  13.799   2.923   9.306
   59ETHO   H1164053  13.896   2.949   9.259
   59ETHO   H1364054  13.803   2.926   9.417
   59ETHO    C264055  13.756   2.782   9.263
   59ETHO   H2164056  13.665   2.748   9.317
   59ETHO   H2364057  13.846   2.721   9.288
   60ETHO    O164058  13.746   2.780   9.122
   60ETHO    C164059  13.804   2.668   9.065
   60ETHO   H1164060  13.740   2.631   8.983
   60ETHO   H1364061  13.813   2.590   9.143
   60ETHO    C264062  13.940   2.708   9.002
   60ETHO   H2164063  14.005   2.621   8.976
   60ETHO   H2364064  14.000   2.770   9.073
   61ETHO    O164065  13.922   2.777   8.878
   61ETHO    C164066  14.041   2.849   8.851
   61ETHO   H1164067  14.032   2.945   8.905
   61ETHO   H1364068  14.128   2.798   8.897
   61ETHO    C264069  14.057   2.867   8.702
   61ETHO   H2164070  14.079   2.777   8.640
   61ETHO   H2364071  14.144   2.932   8.681
   62ETHO    O164072  13.938   2.935   8.644
   62ETHO    C164073  13.946   2.952   8.504
   62ETHO   H1164074  13.841   2.973   8.476
   62ETHO   H1364075  13.971   2.851   8.464
   62ETHO    C264076  14.033   3.071   8.453
   62ETHO   H2164077  14.045   3.051   8.345
   62ETHO   H2364078  14.134   3.065   8.499
   63ETHO    O164079  13.996   3.205   8.460
   63ETHO    C164080  13.894   3.241   8.364
   63ETHO   H1164081  13.922   3.221   8.259
   63ETHO   H1364082  13.799   3.190   8.390
   63ETHO    C264083  13.854   3.392   8.369
   63ETHO   H2164084  13.793   3.405   8.277
   63ETHO   H2364085  13.939   3.464   8.363
   64ETHO    O164086  13.772   3.428   8.484
   64ETHO    C164087  13.741   3.567   8.482
   64ETHO   H1164088  13.687   3.581   8.386
   64ETHO   H1364089  13.832   3.629   8.497
   64ETHO    C264090  13.640   3.590   8.594
   64ETHO   H2164091  13.572   3.503   8.604
   64ETHO   H2364092  13.583   3.685   8.604
   65ETHO    O164093  13.729   3.600   8.706
   65ETHO    C164094  13.658   3.628   8.824
   65ETHO   H1164095  13.598   3.722   8.820
   65ETHO   H1364096  13.588   3.548   8.855
   65ETHO    C264097  13.761   3.651   8.941
   65ETHO   H2164098  13.833   3.566   8.940
   65ETHO   H2364099  13.702   3.641   9.034
   66ETHO    O164100  13.833   3.768   8.923
   66ETHO    C164101  13.954   3.754   8.996
   66ETHO   H1164102  14.015   3.688   8.930
   66ETHO   H1364103  13.941   3.695   9.089
   66ETHO    C264104  14.033   3.885   9.009
   66ETHO   H2164105  14.061   3.940   8.916
   66ETHO   H2364106  14.126   3.866   9.066
   67ETHO    O164107  13.963   3.975   9.088
   67ETHO    C164108  14.033   4.102   9.082
   67ETHO   H1164109  14.141   4.079   9.091
   67ETHO   H1364110  14.011   4.148   8.983
   67ETHO    C264111  13.985   4.191   9.195
   67ETHO   H2164112  13.877   4.218   9.192
   67ETHO   H2364113  14.038   4.288   9.190
   68ETHO    O164114  14.014   4.140   9.328
   68ETHO    C164115  14.153   4.141   9.364
   68ETHO   H1164116  14.196   4.054   9.309
   68ETHO   H1364117  14.189   4.238   9.322
   68ETHO    C264118  14.184   4.115   9.508
   68ETHO   H2164119  14.111   4.167   9.574
   68ETHO   H2364120  14.286   4.156   9.525
   69ETHO    O164121  14.164   3.981   9.545
   69ETHO    C164122  14.268   3.930   9.628
   69ETHO   H1164123  14.276   3.819   9.618
   69ETHO   H1364124  14.368   3.969   9.601
   69ETHO    C264125  14.245   3.972   9.772
   69ETHO   H2164126  14.214   4.078   9.784
   69ETHO   H2364127  14.338   3.969   9.833
   70ETHO    O164128  14.148   3.888   9.839
   70ETHO    C164129  14.114   3.931   9.965
   70ETHO   H1164130  14.198   3.900  10.032
   70ETHO   H1364131  14.081   4.037   9.971
   70ETHO    C264132  13.993   3.850  10.011
   70ETHO   H2164133  13.979   3.861  10.120
   70ETHO   H2364134  13.996   3.744   9.980
   71ETHO    O164135  13.870   3.897   9.941
   71ETHO    C164136  13.751   3.842  10.001
   71ETHO   H1164137  13.770   3.737  10.031
   71ETHO   H1364138  13.685   3.827   9.913
   71ETHO    C264139  13.683   3.937  10.103
   71ETHO   H2164140  13.766   3.964  10.172
   71ETHO   H2364141  13.608   3.871  10.150
   72ETHO    O164142  13.614   4.042  10.031
   72ETHO    C164143  13.574   4.145  10.126
   72ETHO   H1164144  13.481   4.194  10.090
   72ETHO   H1364145  13.546   4.100  10.224
   72ETHO    C264146  13.682   4.251  10.131
   72ETHO   H2164147  13.635   4.339  10.179
   72ETHO   H2364148  13.714   4.271  10.027
   73ETHO    O164149  13.794   4.212  10.205
   73ETHO    C164150  13.874   4.322  10.243
   73ETHO   H1164151  13.825   4.379  10.325
   73ETHO   H1364152  13.874   4.385  10.152
   73ETHO    C264153  14.012   4.275  10.290
   73ETHO   H2164154  14.086   4.336  10.234
   73ETHO   H2364155  14.031   4.171  10.256
   74ETHO    O164156  14.033   4.260  10.433
   74ETHO    C164157  14.061   4.382  10.502
   74ETHO   H1164158  14.117   4.455  10.439
   74ETHO   H1364159  13.964   4.433  10.522
   74ETHO    C264160  14.130   4.364  10.639
   74ETHO   H2164161  14.099   4.272  10.693
   74ETHO   H2364162  14.096   4.453  10.697
   75ETHO    O164163  14.274   4.367  10.621
   75ETHO    C164164  14.341   4.379  10.747
   75ETHO   H1164165  14.291   4.455  10.810
   75ETHO   H1364166  14.446   4.411  10.726
   75ETHO    C264167  14.347   4.245  10.822
   75ETHO   H2164168  14.433   4.251  10.892
   75ETHO   H2364169  14.358   4.164  10.747
   76ETHO    O164170  14.231   4.232  10.905
   76ETHO    C164171  14.253   4.137  11.014
   76ETHO   H1164172  14.158   4.105  11.061
   76ETHO   H1364173  14.293   4.041  10.976
   76ETHO    C264174  14.338   4.203  11.128
   76ETHO   H2164175  14.278   4.292  11.155
   76ETHO   H2364176  14.438   4.236  11.092
   77ETHO    O164177  14.348   4.105  11.240
   77ETHO    C164178  14.456   4.136  11.325
   77ETHO   H1164179  14.432   4.229  11.381
   77ETHO   H1364180  14.550   4.152  11.268
   77ETHO    C264181  14.476   4.021  11.427
   77ETHO   H2164182  14.386   3.980  11.478
   77ETHO   H2364183  14.554   4.054  11.499
   78ETHO    O164184  14.526   3.913  11.353
   78ETHO    C164185  14.563   3.809  11.439
   78ETHO   H1164186  14.623   3.853  11.521
   78ETHO   H1364187  14.475   3.774  11.498
   78ETHO    C264188  14.642   3.698  11.371
   78ETHO   H2164189  14.685   3.631  11.448
   78ETHO   H2364190  14.728   3.746  11.320
   79ETHO    O164191  14.558   3.626  11.279
   79ETHO    C164192  14.636   3.530  11.205
   79ETHO   H1164193  14.709   3.575  11.135
   79ETHO   H1364194  14.696   3.485  11.287
   79ETHO    C264195  14.553   3.435  11.128
   79ETHO   H2164196  14.464   3.407  11.189
   79ETHO   H2364197  14.608   3.346  11.092
   80ETHO    O164198  14.498   3.502  11.013
   80ETHO    C164199  14.408   3.420  10.942
   80ETHO   H1164200  14.453   3.327  10.902
   80ETHO   H1364201  14.327   3.384  11.008
   80ETHO    C264202  14.339   3.504  10.828
   80ETHO   H2164203  14.319   3.609  10.858
   80ETHO   H2364204  14.236   3.460  10.828
   81ETHO    O164205  14.402   3.482  10.699
   81ETHO    C164206  14.350   3.553  10.585
   81ETHO   H1164207  14.437   3.548  10.516
   81ETHO   H1364208  14.260   3.504  10.543
   81ETHO    C264209  14.333   3.701  10.597
   81ETHO   H2164210  14.420   3.726  10.662
   81ETHO   H2364211  14.337   3.758  10.502
   82ETHO    O164212  14.216   3.740  10.665
   82ETHO    C164213  14.216   3.873  10.703
   82ETHO   H1164214  14.244   3.924  10.608
   82ETHO   H1364215  14.293   3.898  10.779
   82ETHO    C264216  14.077   3.918  10.749
   82ETHO   H2164217  14.086   4.026  10.770
   82ETHO   H2364218  14.042   3.854  10.833
   83ETHO    O164219  13.982   3.899  10.646
   83ETHO    C164220  13.976   4.007  10.550
   83ETHO   H1164221  13.978   4.107  10.599
   83ETHO   H1364222  14.068   3.999  10.490
   83ETHO    C264223  13.849   4.006  10.462
   83ETHO   H2164224  13.826   3.905  10.422
   83ETHO   H2364225  13.860   4.068  10.370
   84ETHO    O164226  13.745   4.059  10.554
   84ETHO    C164227  13.664   4.149  10.487
   84ETHO   H1164228  13.655   4.107  10.385
   84ETHO   H1364229  13.716   4.247  10.481
   84ETHO    C264230  13.532   4.171  10.559
   84ETHO   H2164231  13.480   4.075  10.581
   84ETHO   H2364232  13.465   4.234  10.498
   85ETHO    O164233  13.546   4.243  10.679
   85ETHO    C164234  13.424   4.308  10.722
   85ETHO   H1164235  13.373   4.368  10.644
   85ETHO   H1364236  13.356   4.225  10.750
   85ETHO    C264237  13.449   4.396  10.844
   85ETHO   H2164238  13.483   4.347  10.938
   85ETHO   H2364239  13.346   4.430  10.867
   86ETHO    O164240  13.520   4.512  10.806
   86ETHO    C164241  13.542   4.596  10.918
   86ETHO   H1164242  13.590   4.540  11.001
   86ETHO   H1364243  13.445   4.638  10.953
   86ETHO    C264244  13.625   4.718  10.903
   86ETHO   H2164245  13.722   4.691  10.856
   86ETHO   H2364246  13.656   4.756  11.003
   87ETHO    O164247  13.583   4.821  10.816
   87ETHO    C164248  13.689   4.904  10.769
   87ETHO   H1164249  13.747   4.950  10.851
   87ETHO   H1364250  13.754   4.848  10.698
   87ETHO    C264251  13.647   5.035  10.685
   87ETHO   H2164252  13.554   5.017  10.627
   87ETHO   H2364253  13.732   5.071  10.623
   88ETHO    O164254  13.604   5.146  10.763
   88ETHO    C164255  13.551   5.255  10.683
   88ETHO   H1164256  13.547   5.226  10.576
   88ETHO   H1364257  13.616   5.345  10.690
   88ETHO    C264258  13.409   5.301  10.736
   88ETHO   H2164259  13.338   5.219  10.709
   88ETHO   H2364260  13.394   5.395  10.680
   89ETHO    O164261  13.414   5.332  10.875
   89ETHO    C164262  13.289   5.374  10.925
   89ETHO   H1164263  13.211   5.363  10.847
   89ETHO   H1364264  13.259   5.298  11.001
   89ETHO    C264265  13.310   5.505  10.998
   89ETHO   H2164266  13.371   5.490  11.090
   89ETHO   H2364267  13.213   5.550  11.026
   90ETHO    O164268  13.352   5.617  10.920
   90ETHO    C164269  13.351   5.734  11.004
   90ETHO   H1164270  13.250   5.747  11.047
   90ETHO   H1364271  13.418   5.709  11.089
   90ETHO    C264272  13.415   5.863  10.938
   90ETHO   H2164273  13.498   5.831  10.871
   90ETHO   H2364274  13.448   5.922  11.026
   91ETHO    O164275  13.314   5.933  10.866
   91ETHO    C164276  13.366   6.057  10.816
   91ETHO   H1164277  13.409   6.127  10.890
   91ETHO   H1364278  13.437   6.034  10.734
   91ETHO    C264279  13.259   6.145  10.746
   91ETHO   H2164280  13.198   6.095  10.667
   91ETHO   H2364281  13.314   6.223  10.690
   92ETHO    O164282  13.173   6.201  10.848
   92ETHO    C164283  13.101   6.305  10.794
   92ETHO   H1164284  13.178   6.372  10.751
   92ETHO   H1364285  13.031   6.278  10.712
   92ETHO    C264286  13.016   6.396  10.888
   92ETHO   H2164287  12.969   6.482  10.835
   92ETHO   H2364288  13.090   6.436  10.961
   93ETHO    O164289  12.909   6.320  10.941
   93ETHO    C164290  12.851   6.375  11.059
   93ETHO   H1164291  12.770   6.306  11.090
   93ETHO   H1364292  12.800   6.473  11.043
   93ETHO    C264293  12.957   6.396  11.176
   93ETHO   H2164294  13.043   6.330  11.154
   93ETHO   H2364295  12.906   6.381  11.274
   94ETHO    O164296  12.987   6.534  11.177
   94ETHO    C164297  13.110   6.565  11.251
   94ETHO   H1164298  13.118   6.499  11.340
   94ETHO   H1364299  13.195   6.551  11.181
   94ETHO    C264300  13.108   6.711  11.287
   94ETHO   H2164301  13.066   6.776  11.207
   94ETHO   H2364302  13.216   6.737  11.298
   95ETHO    O164303  13.051   6.737  11.414
   95ETHO    C164304  13.009   6.872  11.443
   95ETHO   H1164305  12.942   6.864  11.532
   95ETHO   H1364306  12.941   6.898  11.360
   95ETHO    C264307  13.119   6.969  11.475
   95ETHO   H2164308  13.189   6.922  11.548
   95ETHO   H2364309  13.075   7.061  11.517
   96ETHO    O164310  13.197   7.010  11.367
   96ETHO    C164311  13.293   7.116  11.404
   96ETHO   H1164312  13.246   7.204  11.454
   96ETHO   H1364313  13.363   7.070  11.477
   96ETHO    C264314  13.365   7.146  11.274
   96ETHO   H2164315  13.397   7.051  11.226
   96ETHO   H2364316  13.450   7.212  11.300
   97ETHO    O164317  13.291   7.220  11.176
   97ETHO    C164318  13.372   7.238  11.063
   97ETHO   H1164319  13.379   7.142  11.007
   97ETHO   H1364320  13.473   7.271  11.096
   97ETHO    C264321  13.319   7.357  10.978
   97ETHO   H2164322  13.213   7.360  10.946
   97ETHO   H2364323  13.375   7.333  10.885
   98ETHO    O164324  13.349   7.486  11.040
   98ETHO    C164325  13.378   7.578  10.936
   98ETHO   H1164326  13.461   7.550  10.867
   98ETHO   H1364327  13.292   7.582  10.866
   98ETHO    C264328  13.413   7.723  10.989
   98ETHO   H2164329  13.467   7.775  10.907
   98ETHO   H2364330  13.483   7.721  11.075
   99ETHO    O164331  13.292   7.786  11.033
   99ETHO    C164332  13.314   7.927  11.060
   99ETHO   H1164333  13.299   7.985  10.967
   99ETHO   H1364334  13.422   7.924  11.086
   99ETHO    C264335  13.234   7.998  11.168
   99ETHO   H2164336  13.282   8.092  11.204
   99ETHO   H2364337  13.214   7.934  11.256
  100ETHO    O164338  13.105   8.024  11.112
  100ETHO    C164339  13.007   8.064  11.208
  100ETHO   H1164340  12.912   8.025  11.167
  100ETHO   H1364341  13.021   8.014  11.306
  100ETHO    C264342  13.002   8.213  11.229
  100ETHO   H2164343  12.915   8.236  11.294
  100ETHO   H2364344  12.989   8.261  11.130
  101PROX    O164345  13.118   8.265  11.287
  101PROX    C164346  13.136   8.408  11.254
  101PROX   H1164347  13.128   8.427  11.145
  101PROX   H1364348  13.059   8.469  11.305
  101PROX    C264349  13.277   8.461  11.315
  101PROX   H2164350  13.359   8.393  11.284
  101PROX    C364351  13.273   8.452  11.468
  101PROX   H3164352  13.186   8.517  11.488
  101PROX   H3264353  13.265   8.351  11.512
  101PROX   H3364354  13.361   8.504  11.512
  102PROX    O164355  13.304   8.586  11.260
  102PROX    C164356  13.441   8.629  11.249
  102PROX   H1164357  13.515   8.567  11.304
  102PROX   H1364358  13.463   8.635  11.141
  102PROX    C264359  13.466   8.772  11.309
  102PROX   H2164360  13.383   8.837  11.275
  102PROX    C364361  13.611   8.821  11.271
  102PROX   H3164362  13.689   8.772  11.333
  102PROX   H3264363  13.636   8.806  11.163
  102PROX   H3364364  13.616   8.929  11.297
  103PROX    O164365  13.452   8.761  11.449
  103PROX    C164366  13.457   8.882  11.516
  103PROX   H1164367  13.564   8.906  11.533
  103PROX   H1364368  13.425   8.963  11.447
  103PROX    C264369  13.390   8.883  11.656
  103PROX   H2164370  13.432   8.796  11.711
  103PROX    C364371  13.239   8.876  11.652
  103PROX   H3164372  13.193   8.879  11.753
  103PROX   H3264373  13.195   8.954  11.586
  103PROX   H3364374  13.202   8.782  11.605
  104PROX    O164375  13.426   9.004  11.720
  104PROX    C164376  13.519   8.985  11.825
  104PROX   H1164377  13.472   8.932  11.911
  104PROX   H1364378  13.602   8.928  11.778
  104PROX    C264379  13.571   9.119  11.888
  104PROX   H2164380  13.629   9.175  11.811
  104PROX    C364381  13.667   9.103  12.003
  104PROX   H3164382  13.632   9.043  12.089
  104PROX   H3264383  13.766   9.061  11.974
  104PROX   H3364384  13.682   9.208  12.038
  105PROX    O164385  13.459   9.195  11.935
  105PROX    C164386  13.392   9.264  11.836
  105PROX   H1164387  13.412   9.229  11.732
  105PROX   H1364388  13.281   9.253  11.840
  105PROX    C264389  13.411   9.420  11.830
  105PROX   H2164390  13.512   9.438  11.872
  105PROX    C364391  13.301   9.488  11.919
  105PROX   H3164392  13.295   9.433  12.015
  105PROX   H3264393  13.323   9.595  11.942
  105PROX   H3364394  13.202   9.474  11.872
  106PROX    O164395  13.407   9.471  11.698
  106PROX    C164396  13.455   9.610  11.695
  106PROX   H1164397  13.379   9.675  11.742
  106PROX   H1364398  13.540   9.619  11.766
  106PROX    C264399  13.484   9.662  11.554
  106PROX   H2164400  13.403   9.630  11.486
  106PROX    C364401  13.613   9.603  11.492
  106PROX   H3164402  13.585   9.495  11.488
  106PROX   H3264403  13.642   9.633  11.389
  106PROX   H3364404  13.697   9.615  11.564
  107PROX    O164405  13.478   9.803  11.555
  107PROX    C164406  13.537   9.862  11.437
  107PROX   H1164407  13.644   9.885  11.453
  107PROX   H1364408  13.514   9.807  11.343
  107PROX    C264409  13.488  10.006  11.398
  107PROX   H2164410  13.377  10.009  11.390
  107PROX    C364411  13.544  10.025  11.256
  107PROX   H3164412  13.650   9.994  11.258
  107PROX   H3264413  13.490   9.961  11.183
  107PROX   H3364414  13.538  10.131  11.224
  108PROX    O164415  13.536  10.098  11.497
  108PROX    C164416  13.459  10.111  11.613
  108PROX   H1164417  13.395  10.020  11.614
  108PROX   H1364418  13.523  10.117  11.704
  108PROX    C264419  13.379  10.240  11.593
  108PROX   H2164420  13.445  10.330  11.586
  108PROX    C364421  13.285  10.249  11.716
  108PROX   H3164422  13.350  10.252  11.805
  108PROX   H3264423  13.236  10.347  11.699
  108PROX   H3364424  13.197  10.182  11.727
  109PROX    O164425  13.293  10.229  11.480
  109PROX    C164426  13.342  10.310  11.370
  109PROX   H1164427  13.349  10.419  11.389
  109PROX   H1364428  13.443  10.277  11.338
  109PROX    C264429  13.244  10.303  11.254
  109PROX   H2164430  13.276  10.366  11.168
  109PROX    C364431  13.112  10.365  11.309
  109PROX   H3164432  13.029  10.361  11.235
  109PROX   H3264433  13.085  10.314  11.404
  109PROX   H3364434  13.124  10.470  11.340
  110PROX    O164435  13.231  10.168  11.210
  110PROX    C164436  13.144  10.137  11.100
  110PROX   H1164437  13.038  10.142  11.135
  110PROX   H1364438  13.145  10.218  11.024
  110PROX    C264439  13.184   9.992  11.062
  110PROX   H2164440  13.293  10.008  11.048
  110PROX    C364441  13.117   9.943  10.935
  110PROX   H3164442  13.150   9.839  10.911
  110PROX   H3264443  13.007   9.946  10.949
  110PROX   H3364444  13.144  10.010  10.851
  111PROX    O164445  13.164   9.902  11.175
  111PROX    C164446  13.215   9.765  11.166
  111PROX   H1164447  13.276   9.758  11.073
  111PROX   H1364448  13.274   9.742  11.258
  111PROX    C264449  13.109   9.656  11.166
  111PROX   H2164450  13.040   9.676  11.081
  111PROX    C364451  13.032   9.644  11.304
  111PROX   H3164452  12.939   9.586  11.287
  111PROX   H3264453  13.087   9.620  11.398
  111PROX   H3364454  12.999   9.750  11.312
  112PROX    O164455  13.169   9.532  11.152
  112PROX    C164456  13.108   9.455  11.051
  112PROX   H1164457  13.147   9.351  11.046
  112PROX   H1364458  12.997   9.453  11.062
  112PROX    C264459  13.127   9.513  10.905
  112PROX   H2164460  13.083   9.614  10.892
  112PROX    C364461  13.049   9.435  10.801
  112PROX   H3164462  12.945   9.422  10.838
  112PROX   H3264463  13.046   9.494  10.707
  112PROX   H3364464  13.089   9.332  10.784
  113PROX    O164465  13.264   9.535  10.877
  113PROX    C164466  13.289   9.597  10.753
  113PROX   H1164467  13.269   9.534  10.664
  113PROX   H1364468  13.226   9.688  10.743
  113PROX    C264469  13.437   9.641  10.750
  113PROX   H2164470  13.510   9.559  10.769
  113PROX    C364471  13.472   9.756  10.848
  113PROX   H3164472  13.464   9.729  10.955
  113PROX   H3264473  13.579   9.779  10.828
  113PROX   H3364474  13.417   9.848  10.816
  114PROX    O164475  13.473   9.699  10.629
  114PROX    C164476  13.502   9.598  10.526
  114PROX   H1164477  13.575   9.525  10.568
  114PROX   H1364478  13.416   9.543  10.483
  114PROX    C264479  13.568   9.670  10.403
  114PROX   H2164480  13.494   9.748  10.374
  114PROX    C364481  13.569   9.581  10.284
  114PROX   H3164482  13.604   9.480  10.315
  114PROX   H3264483  13.473   9.574  10.230
  114PROX   H3364484  13.640   9.622  10.209
  115PROX    O164485  13.705   9.709  10.426
  115PROX    C164486  13.731   9.784  10.538
  115PROX   H1164487  13.656   9.865  10.550
  115PROX   H1364488  13.724   9.712  10.622
  115PROX    C264489  13.874   9.852  10.533
  115PROX   H2164490  13.876   9.944  10.471
  115PROX    C364491  13.986   9.758  10.472
  115PROX   H3164492  14.082   9.810  10.450
  115PROX   H3264493  13.998   9.674  10.543
  115PROX   H3364494  13.947   9.713  10.379
  116PROX    O164495  13.914   9.875  10.667
  116PROX    C164496  13.831   9.981  10.718
  116PROX   H1164497  13.832  10.065  10.645
  116PROX   H1364498  13.727   9.945  10.729
  116PROX    C264499  13.882  10.026  10.859
  116PROX   H2164500  13.897   9.935  10.921
  116PROX    C364501  13.779  10.117  10.928
  116PROX   H3164502  13.817  10.160  11.023
  116PROX   H3264503  13.750  10.209  10.872
  116PROX   H3364504  13.685  10.062  10.949
  117PROX    O164505  14.000  10.109  10.850
  117PROX    C164506  14.121  10.044  10.805
  117PROX   H1164507  14.102   9.966  10.728
  117PROX   H1364508  14.176  10.120  10.746
  117PROX    C264509  14.200   9.988  10.920
  117PROX   H2164510  14.137   9.940  10.999
  117PROX    C364511  14.266  10.105  10.989
  117PROX   H3164512  14.202  10.196  10.986
  117PROX   H3264513  14.270  10.086  11.098
  117PROX   H3364514  14.365  10.135  10.948
  118PROX    O164515  14.289   9.890  10.870
  118PROX    C164516  14.340   9.810  10.975
  118PROX   H1164517  14.332   9.862  11.073
  118PROX   H1364518  14.277   9.718  10.975
  118PROX    C264519  14.491   9.764  10.948
  118PROX   H2164520  14.550   9.858  10.948
  118PROX    C364521  14.496   9.707  10.802
  118PROX   H3164522  14.432   9.616  10.797
  118PROX   H3264523  14.462   9.785  10.731
  118PROX   H3364524  14.598   9.684  10.763
  119PROX    O164525  14.539   9.672  11.044
  119PROX    C164526  14.676   9.644  11.037
  119PROX   H1164527  14.688   9.566  11.115
  119PROX   H1364528  14.704   9.610  10.935
  119PROX    C264529  14.777   9.754  11.077
  119PROX   H2164530  14.751   9.848  11.025
  119PROX    C364531  14.926   9.704  11.053
  119PROX   H3164532  14.943   9.665  10.950
  119PROX   H3264533  14.995   9.787  11.081
  119PROX   H3364534  14.947   9.624  11.127
  120PROX    O164535  14.774   9.787  11.215
  120PROX    C164536  14.663   9.874  11.244
  120PROX   H1164537  14.688   9.981  11.236
  120PROX   H1364538  14.575   9.848  11.181
  120PROX    C264539  14.614   9.841  11.390
  120PROX   H2164540  14.684   9.892  11.460
  120PROX    C364541  14.619   9.690  11.409
  120PROX   H3164542  14.727   9.662  11.400
  120PROX   H3264543  14.579   9.664  11.510
  120PROX   H3364544  14.561   9.647  11.325
  121PROX    O164545  14.479   9.891  11.401
  121PROX    C164546  14.416   9.858  11.521
  121PROX   H1164547  14.406   9.747  11.523
  121PROX   H1364548  14.472   9.898  11.608
  121PROX    C264549  14.272   9.910  11.520
  121PROX   H2164550  14.262  10.017  11.492
  121PROX    C364551  14.224   9.896  11.665
  121PROX   H3164552  14.241   9.789  11.689
  121PROX   H3264553  14.280   9.965  11.731
  121PROX   H3364554  14.118   9.926  11.677
  122PROX    O164555  14.194   9.824  11.440
  122PROX    C164556  14.062   9.869  11.425
  122PROX   H1164557  13.998   9.805  11.491
  122PROX   H1364558  14.046   9.976  11.450
  122PROX    C264559  14.016   9.848  11.275
  122PROX   H2164560  14.106   9.827  11.213
  122PROX    C364561  13.944   9.972  11.226
  122PROX   H3164562  14.008  10.064  11.228
  122PROX   H3264563  13.891   9.958  11.129
  122PROX   H3364564  13.861   9.994  11.296
  123PROX    O164565  13.914   9.745  11.276
  123PROX    C164566  13.961   9.623  11.205
  123PROX   H1164567  14.072   9.621  11.214
  123PROX   H1364568  13.911   9.530  11.237
  123PROX    C264569  13.936   9.635  11.048
  123PROX   H2164570  14.000   9.718  11.011
  123PROX    C364571  13.790   9.675  11.009
  123PROX   H3164572  13.786   9.697  10.900
  123PROX   H3264573  13.723   9.593  11.043
  123PROX   H3364574  13.759   9.767  11.063
  124PROX    O164575  13.984   9.518  10.972
  124PROX    C164576  14.009   9.537  10.830
  124PROX   H1164577  13.908   9.561  10.789
  124PROX   H1364578  14.074   9.623  10.803
  124PROX    C264579  14.054   9.409  10.760
  124PROX   H2164580  14.001   9.324  10.807
  124PROX    C364581  14.205   9.381  10.770
  124PROX   H3164582  14.245   9.372  10.873
  124PROX   H3264583  14.230   9.290  10.711
  124PROX   H3364584  14.267   9.456  10.717
  125PROX    O164585  14.032   9.405  10.619
  125PROX    C164586  13.899   9.369  10.582
  125PROX   H1164587  13.826   9.431  10.640
  125PROX   H1364588  13.880   9.400  10.477
  125PROX    C264589  13.884   9.213  10.593
  125PROX   H2164590  13.987   9.171  10.585
  125PROX    C364591  13.801   9.160  10.475
  125PROX   H3164592  13.707   9.218  10.466
  125PROX   H3264593  13.853   9.185  10.380
  125PROX   H3364594  13.788   9.050  10.487
  126PROX    O164595  13.841   9.170  10.720
  126PROX    C164596  13.717   9.232  10.755
  126PROX   H1164597  13.743   9.330  10.802
  126PROX   H1364598  13.643   9.230  10.672
  126PROX    C264599  13.664   9.142  10.868
  126PROX   H2164600  13.755   9.124  10.929
  126PROX    C364601  13.610   9.011  10.813
  126PROX   H3164602  13.683   8.956  10.749
  126PROX   H3264603  13.563   8.943  10.886
  126PROX   H3364604  13.522   9.024  10.746
  127PROX    O164605  13.566   9.221  10.944
  127PROX    C164606  13.550   9.178  11.077
  127PROX   H1164607  13.504   9.077  11.083
  127PROX   H1364608  13.651   9.172  11.124
  127PROX    C264609  13.457   9.279  11.153
  127PROX   H2164610  13.355   9.270  11.110
  127PROX    C364611  13.513   9.427  11.166
  127PROX   H3164612  13.602   9.410  11.231
  127PROX   H3264613  13.539   9.463  11.064
  127PROX   H3364614  13.440   9.494  11.215
  128PROX    O164615  13.424   9.237  11.290
  128PROX    C164616  13.306   9.297  11.342
  128PROX   H1164617  13.335   9.377  11.413
  128PROX   H1364618  13.239   9.338  11.264
  128PROX    C264619  13.222   9.182  11.402
  128PROX   H2164620  13.283   9.135  11.482
  128PROX    C364621  13.176   9.081  11.297
  128PROX   H3164622  13.113   9.125  11.217
  128PROX   H3264623  13.262   9.029  11.249
  128PROX   H3364624  13.115   9.000  11.342
  129PROX    O164625  13.102   9.240  11.467
  129PROX    C164626  13.129   9.325  11.578
  129PROX   H1164627  13.233   9.309  11.614
  129PROX   H1364628  13.124   9.431  11.544
  129PROX    C264629  13.030   9.298  11.690
  129PROX   H2164630  13.063   9.367  11.770
  129PROX    C364631  13.023   9.162  11.752
  129PROX   H3164632  12.977   9.089  11.682
  129PROX   H3264633  13.123   9.120  11.777
  129PROX   H3364634  12.964   9.165  11.846
  130PROX    O164635  12.900   9.326  11.644
  130PROX    C164636  12.884   9.460  11.593
  130PROX   H1164637  12.930   9.544  11.649
  130PROX   H1364638  12.913   9.468  11.486
  130PROX    C264639  12.737   9.490  11.589
  130PROX   H2164640  12.698   9.469  11.691
  130PROX    C364641  12.657   9.401  11.497
  130PROX   H3164642  12.549   9.428  11.502
  130PROX   H3264643  12.681   9.417  11.389
  130PROX   H3364644  12.672   9.296  11.530
  131PROX    O164645  12.719   9.628  11.550
  131PROX    C164646  12.664   9.705  11.650
  131PROX   H1164647  12.627   9.796  11.597
  131PROX   H1364648  12.571   9.666  11.697
  131PROX    C264649  12.758   9.738  11.771
  131PROX   H2164650  12.775   9.647  11.832
  131PROX    C364651  12.694   9.835  11.855
  131PROX   H3164652  12.745   9.863  11.950
  131PROX   H3264653  12.682   9.935  11.807
  131PROX   H3364654  12.594   9.807  11.893
  132PROX    O164655  12.885   9.793  11.728
  132PROX    C164656  12.982   9.790  11.833
  132PROX   H1164657  12.953   9.844  11.925
  132PROX   H1364658  13.003   9.683  11.857
  132PROX    C264659  13.115   9.837  11.770
  132PROX   H2164660  13.109   9.947  11.758
  132PROX    C364661  13.136   9.769  11.632
  132PROX   H3164662  13.162   9.663  11.654
  132PROX   H3264663  13.045   9.780  11.570
  132PROX   H3364664  13.231   9.807  11.588
  133PROX    O164665  13.224   9.812  11.858
  133PROX    C164666  13.222   9.894  11.983
  133PROX   H1164667  13.167   9.990  11.973
  133PROX   H1364668  13.180   9.842  12.071
  133PROX    C264669  13.366   9.936  12.003
  133PROX   H2164670  13.402  10.007  11.926
  133PROX    C364671  13.457   9.809  12.010
  133PROX   H3164672  13.462   9.763  11.909
  133PROX   H3264673  13.557   9.846  12.043
  133PROX   H3364674  13.431   9.736  12.090
  134PROX    O164675  13.371  10.004  12.129
  134PROX    C164676  13.308  10.133  12.126
  134PROX   H1164677  13.291  10.176  12.025
  134PROX   H1364678  13.208  10.130  12.174
  134PROX    C264679  13.395  10.235  12.198
  134PROX   H2164680  13.422  10.194  12.298
  134PROX    C364681  13.311  10.362  12.227
  134PROX   H3164682  13.219  10.344  12.286
  134PROX   H3264683  13.382  10.431  12.278
  134PROX   H3364684  13.280  10.415  12.135
  135PROX    O164685  13.508  10.271  12.115
  135PROX    C164686  13.629  10.208  12.164
  135PROX   H1164687  13.662  10.261  12.255
  135PROX   H1364688  13.601  10.103  12.187
  135PROX    C264689  13.742  10.222  12.062
  135PROX   H2164690  13.766  10.331  12.065
  135PROX    C364691  13.683  10.174  11.925
  135PROX   H3164692  13.763  10.171  11.848
  135PROX   H3264693  13.647  10.070  11.937
  135PROX   H3364694  13.610  10.248  11.885
  136PROX    O164695  13.855  10.141  12.098
  136PROX    C164696  13.975  10.183  12.036
  136PROX   H1164697  13.958  10.244  11.944
  136PROX   H1364698  14.025  10.263  12.094
  136PROX    C264699  14.060  10.061  12.002
  136PROX   H2164700  14.070  10.007  12.099
  136PROX    C364701  14.197  10.102  11.960
  136PROX   H3164702  14.201  10.155  11.862
  136PROX   H3264703  14.264  10.146  12.037
  136PROX   H3364704  14.250  10.006  11.942
  137PROX    O164705  14.005   9.988  11.894
  137PROX    C164706  13.904   9.904  11.939
  137PROX   H1164707  13.933   9.852  12.033
  137PROX   H1364708  13.810   9.954  11.970
  137PROX    C264709  13.862   9.787  11.836
  137PROX   H2164710  13.956   9.731  11.815
  137PROX    C364711  13.795   9.854  11.723
  137PROX   H3164712  13.709   9.925  11.736
  137PROX   H3264713  13.878   9.911  11.676
  137PROX   H3364714  13.749   9.786  11.649
  138PROX    O164715  13.759   9.705  11.884
  138PROX    C164716  13.792   9.619  11.999
  138PROX   H1164717  13.832   9.668  12.091
  138PROX   H1364718  13.696   9.571  12.030
  138PROX    C264719  13.876   9.491  11.960
  138PROX   H2164720  13.976   9.526  11.927
  138PROX    C364721  13.819   9.407  11.852
  138PROX   H3164722  13.722   9.370  11.892
  138PROX   H3264723  13.805   9.474  11.764
  138PROX   H3364724  13.876   9.318  11.819
  139PROX    O164725  13.892   9.403  12.073
  139PROX    C164726  13.970   9.447  12.177
  139PROX   H1164727  13.921   9.538  12.217
  139PROX   H1364728  13.956   9.367  12.252
  139PROX    C264729  14.123   9.443  12.140
  139PROX   H2164730  14.135   9.357  12.070
  139PROX    C364731  14.209   9.430  12.266
  139PROX   H3164732  14.316   9.413  12.240
  139PROX   H3264733  14.211   9.522  12.327
  139PROX   H3364734  14.175   9.342  12.325
  140PROX    O164735  14.160   9.560  12.074
  140PROX    C164736  14.263   9.543  11.977
  140PROX   H1164737  14.344   9.481  12.019
  140PROX   H1364738  14.218   9.491  11.890
  140PROX    C264739  14.325   9.680  11.934
  140PROX   H2164740  14.245   9.742  11.889
  140PROX    C364741  14.428   9.667  11.819
  140PROX   H3164742  14.382   9.627  11.726
  140PROX   H3264743  14.479   9.761  11.790
  140PROX   H3364744  14.506   9.592  11.842
  141PROX    O164745  14.383   9.749  12.038
  141PROX    C164746  14.481   9.679  12.106
  141PROX   H1164747  14.431   9.599  12.163
  141PROX   H1364748  14.568   9.647  12.044
  141PROX    C264749  14.548   9.780  12.203
  141PROX   H2164750  14.466   9.830  12.258
  141PROX    C364751  14.623   9.903  12.138
  141PROX   H3164752  14.557   9.991  12.131
  141PROX   H3264753  14.715   9.936  12.191
  141PROX   H3364754  14.655   9.879  12.034
  142PROX    O164755  14.643   9.713  12.290
  142PROX    C164756  14.667   9.781  12.413
  142PROX   H1164757  14.768   9.764  12.455
  142PROX   H1364758  14.648   9.889  12.396
  142PROX    C264759  14.561   9.748  12.519
  142PROX   H2164760  14.464   9.769  12.468
  142PROX    C364761  14.572   9.848  12.635
  142PROX   H3164762  14.492   9.841  12.712
  142PROX   H3264763  14.672   9.847  12.684
  142PROX   H3364764  14.571   9.954  12.600
  143PROX    O164765  14.567   9.613  12.564
  143PROX    C164766  14.508   9.515  12.477
  143PROX   H1164767  14.404   9.497  12.511
  143PROX   H1364768  14.504   9.556  12.373
  143PROX    C264769  14.564   9.380  12.476
  143PROX   H2164770  14.563   9.327  12.573
  143PROX    C364771  14.719   9.391  12.423
  143PROX   H3164772  14.774   9.467  12.482
  143PROX   H3264773  14.762   9.289  12.421
  143PROX   H3364774  14.712   9.427  12.318
  144PROX    O164775  14.502   9.302  12.376
  144PROX    C164776  14.510   9.165  12.393
  144PROX   H1164777  14.612   9.136  12.426
  144PROX   H1364778  14.441   9.131  12.473
  144PROX    C264779  14.476   9.089  12.261
  144PROX   H2164780  14.381   9.120  12.214
  144PROX    C364781  14.466   8.939  12.304
  144PROX   H3164782  14.556   8.924  12.367
  144PROX   H3264783  14.384   8.924  12.378
  144PROX   H3364784  14.452   8.872  12.217
  145PROX    O164785  14.583   9.105  12.162
  145PROX    C164786  14.589   9.225  12.093
  145PROX   H1164787  14.492   9.239  12.041
  145PROX   H1364788  14.602   9.311  12.161
  145PROX    C264789  14.700   9.222  11.987
  145PROX   H2164790  14.680   9.134  11.921
  145PROX    C364791  14.838   9.207  12.047
  145PROX   H3164792  14.845   9.119  12.113
  145PROX   H3264793  14.912   9.205  11.964
  145PROX   H3364794  14.848   9.292  12.117
  146PROX    O164795  14.689   9.340  11.904
  146PROX    C164796  14.806   9.389  11.832
  146PROX   H1164797  14.875   9.434  11.906
  146PROX   H1364798  14.856   9.307  11.776
  146PROX    C264799  14.761   9.486  11.725
  146PROX   H2164800  14.706   9.574  11.766
  146PROX    C364801  14.675   9.417  11.625
  146PROX   H3164802  14.706   9.311  11.621
  146PROX   H3264803  14.566   9.409  11.643
  146PROX   H3364804  14.696   9.453  11.522
  147PROX    O164805  14.879   9.522  11.650
  147PROX    C164806  14.915   9.659  11.684
  147PROX   H1164807  14.858   9.738  11.631
  147PROX   H1364808  14.913   9.680  11.793
  147PROX    C264809  15.062   9.679  11.646
  147PROX   H2164810  15.107   9.577  11.649
  147PROX    C364811  15.152   9.779  11.728
  147PROX   H3164812  15.082   9.865  11.725
  147PROX   H3264813  15.184   9.759  11.832
  147PROX   H3364814  15.248   9.800  11.677
  148PROX    O164815  15.076   9.732  11.520
  148PROX    C164816  15.048   9.636  11.411
  148PROX   H1164817  14.953   9.580  11.428
  148PROX   H1364818  15.044   9.696  11.318
  148PROX    C264819  15.163   9.522  11.401
  148PROX   H2164820  15.182   9.482  11.503
  148PROX    C364821  15.298   9.576  11.341
  148PROX   H3164822  15.333   9.666  11.397
  148PROX   H3264823  15.384   9.508  11.358
  148PROX   H3364824  15.295   9.612  11.236
  149PROX    O164825  15.117   9.409  11.325
  149PROX    C164826  15.041   9.328  11.412
  149PROX   H1164827  15.099   9.268  11.485
  149PROX   H1364828  14.974   9.394  11.472
  149PROX    C264829  14.948   9.244  11.329
  149PROX   H2164830  15.011   9.185  11.260
  149PROX    C364831  14.847   9.331  11.248
  149PROX   H3164832  14.897   9.391  11.168
  149PROX   H3264833  14.780   9.260  11.195
  149PROX   H3364834  14.783   9.397  11.310
  150PROX    O164835  14.881   9.153  11.411
  150PROX    C164836  14.833   9.024  11.358
  150PROX   H1164837  14.789   9.031  11.256
  150PROX   H1364838  14.921   8.957  11.351
  150PROX    C264839  14.737   8.953  11.462
  150PROX   H2164840  14.643   9.011  11.473
  150PROX    C364841  14.805   8.943  11.605
  150PROX   H3164842  14.749   8.868  11.664
  150PROX   H3264843  14.907   8.900  11.595
  150PROX   H3364844  14.817   9.046  11.647
  151PROX    O164845  14.699   8.825  11.401
  151PROX    C164846  14.587   8.765  11.467
  151PROX   H1164847  14.618   8.659  11.472
  151PROX   H1364848  14.569   8.815  11.565
  151PROX    C264849  14.469   8.751  11.372
  151PROX   H2164850  14.499   8.696  11.281
  151PROX    C364851  14.421   8.889  11.328
  151PROX   H3164852  14.402   8.965  11.407
  151PROX   H3264853  14.502   8.943  11.273
  151PROX   H3364854  14.338   8.895  11.254
  152PROX    O164855  14.372   8.668  11.433
  152PROX    C164856  14.259   8.657  11.350
  152PROX   H1164857  14.202   8.752  11.337
  152PROX   H1364858  14.278   8.611  11.251
  152PROX    C264859  14.159   8.552  11.427
  152PROX   H2164860  14.147   8.591  11.530
  152PROX    C364861  14.206   8.406  11.416
  152PROX   H3164862  14.173   8.348  11.327
  152PROX   H3264863  14.316   8.391  11.424
  152PROX   H3364864  14.166   8.363  11.510
  153PROX    O164865  14.034   8.561  11.357
  153PROX    C164866  13.921   8.500  11.423
  153PROX   H1164867  13.837   8.505  11.351
  153PROX   H1364868  13.955   8.400  11.459
  153PROX    C264869  13.878   8.581  11.542
  153PROX   H2164870  13.948   8.550  11.623
  153PROX    C364871  13.738   8.542  11.596
  153PROX   H3164872  13.744   8.438  11.634
  153PROX   H3264873  13.714   8.592  11.693
  153PROX   H3364874  13.667   8.554  11.512
  154PROX    O164875  13.885   8.719  11.505
  154PROX    C164876  13.877   8.806  11.609
  154PROX   H1164877  13.771   8.836  11.618
  154PROX   H1364878  13.916   8.762  11.704
  154PROX    C264879  13.974   8.930  11.585
  154PROX   H2164880  13.970   8.951  11.476
  154PROX    C364881  14.125   8.914  11.610
  154PROX   H3164882  14.177   8.983  11.540
  154PROX   H3264883  14.159   8.932  11.714
  154PROX   H3364884  14.154   8.811  11.579
  155PROX    O164885  13.923   9.047  11.662
  155PROX    C164886  13.830   9.109  11.581
  155PROX   H1164887  13.759   9.040  11.529
  155PROX   H1364888  13.766   9.153  11.660
  155PROX    C264889  13.895   9.214  11.495
  155PROX   H2164890  13.974   9.259  11.559
  155PROX    C364891  13.802   9.328  11.464
  155PROX   H3164892  13.728   9.349  11.545
  155PROX   H3264893  13.866   9.418  11.457
  155PROX   H3364894  13.746   9.313  11.369
  156PROX    O164895  13.969   9.159  11.379
  156PROX    C164896  13.898   9.095  11.280
  156PROX   H1164897  13.822   9.023  11.320
  156PROX   H1364898  13.846   9.169  11.215
  156PROX    C264899  14.005   9.044  11.182
  156PROX   H2164900  14.084   8.991  11.239
  156PROX    C364901  14.075   9.163  11.120
  156PROX   H3164902  14.149   9.114  11.053
  156PROX   H3264903  13.999   9.223  11.066
  156PROX   H3364904  14.124   9.230  11.194
  157PROX    O164905  13.957   8.954  11.077
  157PROX    C164906  13.957   8.819  11.120
  157PROX   H1164907  14.048   8.786  11.176
  157PROX   H1364908  13.875   8.824  11.195
  157PROX    C264909  13.934   8.725  11.002
  157PROX   H2164910  13.851   8.773  10.946
  157PROX    C364911  13.892   8.583  11.046
  157PROX   H3164912  13.793   8.577  11.097
  157PROX   H3264913  13.892   8.512  10.961
  157PROX   H3364914  13.967   8.552  11.122
  158PROX    O164915  14.051   8.718  10.919
  158PROX    C164916  14.022   8.706  10.784
  158PROX   H1164917  14.092   8.645  10.722
  158PROX   H1364918  13.921   8.660  10.772
  158PROX    C264919  14.029   8.844  10.717
  158PROX   H2164920  14.003   8.928  10.784
  158PROX    C364921  13.950   8.851  10.586
  158PROX   H3164922  13.979   8.779  10.507
  158PROX   H3264923  13.841   8.838  10.602
  158PROX   H3364924  13.957   8.953  10.542
  159PROX    O164925  14.166   8.877  10.665
  159PROX    C164926  14.271   8.872  10.762
  159PROX   H1164927  14.244   8.882  10.869
  159PROX   H1364928  14.328   8.780  10.738
  159PROX    C264929  14.358   8.996  10.719
  159PROX   H2164930  14.298   9.083  10.755
  159PROX    C364931  14.393   8.986  10.571
  159PROX   H3164932  14.466   9.065  10.542
  159PROX   H3264933  14.434   8.887  10.543
  159PROX   H3364934  14.303   9.005  10.508
  160PROX    O164935  14.481   8.987  10.789
  160PROX    C164936  14.476   9.028  10.926
  160PROX   H1164937  14.373   9.061  10.952
  160PROX   H1364938  14.494   8.942  10.993
  160PROX    C264939  14.580   9.132  10.952
  160PROX   H2164940  14.558   9.213  10.879
  160PROX    C364941  14.726   9.085  10.941
  160PROX   H3164942  14.746   8.993  10.999
  160PROX   H3264943  14.751   9.080  10.833
  160PROX   H3364944  14.789   9.170  10.975
  161PROX    O164945  14.569   9.195  11.080
  161PROX    C164946  14.446   9.263  11.113
  161PROX   H1164947  14.418   9.337  11.034
  161PROX   H1364948  14.370   9.185  11.135
  161PROX    C264949  14.460   9.340  11.243
  161PROX   H2164950  14.533   9.422  11.228
  161PROX    C364951  14.490   9.246  11.359
  161PROX   H3164952  14.500   9.302  11.454
  161PROX   H3264953  14.407   9.174  11.378
  161PROX   H3364954  14.587   9.194  11.343
  162PROX    O164955  14.330   9.402  11.265
  162PROX    C164956  14.320   9.486  11.381
  162PROX   H1164957  14.416   9.517  11.427
  162PROX   H1364958  14.269   9.579  11.348
  162PROX    C264959  14.225   9.420  11.486
  162PROX   H2164960  14.155   9.345  11.444
  162PROX    C364961  14.138   9.525  11.555
  162PROX   H3164962  14.193   9.605  11.608
  162PROX   H3264963  14.064   9.575  11.489
  162PROX   H3364964  14.074   9.471  11.629
  163PROX    O164965  14.303   9.361  11.594
  163PROX    C164966  14.237   9.249  11.669
  163PROX   H1164967  14.143   9.292  11.709
  163PROX   H1364968  14.212   9.172  11.593
  163PROX    C264969  14.324   9.188  11.781
  163PROX   H2164970  14.361   9.270  11.847
  163PROX    C364971  14.458   9.123  11.741
  163PROX   H3164972  14.541   9.196  11.727
  163PROX   H3264973  14.484   9.060  11.829
  163PROX   H3364974  14.444   9.046  11.662
  164PROX    O164975  14.250   9.092  11.861
  164PROX    C164976  14.177   9.143  11.964
  164PROX   H1164977  14.239   9.196  12.041
  164PROX   H1364978  14.102   9.217  11.929
  164PROX    C264979  14.093   9.040  12.042
  164PROX   H2164980  14.024   8.994  11.969
  164PROX    C364981  14.002   9.100  12.153
  164PROX   H3164982  13.950   9.028  12.219
  164PROX   H3264983  14.075   9.161  12.211
  164PROX   H3364984  13.916   9.153  12.107
  165PROX    O164985  14.175   8.948  12.110
  165PROX    C164986  14.214   8.830  12.038
  165PROX   H1164987  14.263   8.863  11.944
  165PROX   H1364988  14.275   8.767  12.105
  165PROX    C264989  14.099   8.740  11.991
  165PROX   H2164990  14.046   8.785  11.905
  165PROX    C364991  13.998   8.725  12.111
  165PROX   H3164992  13.928   8.811  12.109
  165PROX   H3264993  13.943   8.628  12.109
  165PROX   H3364994  14.058   8.713  12.203
  166ETHO    O164995  14.158   8.614  11.951
  166ETHO    C164996  14.218   8.616  11.817
  166ETHO   H1164997  14.288   8.701  11.810
  166ETHO   H1364998  14.136   8.637  11.745
  166ETHO    C264999  14.298   8.486  11.784
  166ETHO   H2165000  14.390   8.477  11.846
  166ETHO   H2365001  14.337   8.498  11.680
  167ETHO    O165002  14.216   8.362  11.798
  167ETHO    C165003  14.304   8.246  11.780
  167ETHO   H1165004  14.357   8.248  11.682
  167ETHO   H1365005  14.380   8.245  11.861
  167ETHO    C265006  14.229   8.116  11.789
  167ETHO   H2165007  14.197   8.096  11.893
  167ETHO   H2365008  14.289   8.025  11.768
  168ETHO    O165009  14.112   8.116  11.701
  168ETHO    C165010  14.050   7.989  11.669
  168ETHO   H1165011  14.131   7.921  11.636
  168ETHO   H1365012  13.977   7.998  11.586
  168ETHO    C265013  13.961   7.937  11.789
  168ETHO   H2165014  14.003   7.977  11.883
  168ETHO   H2365015  13.967   7.826  11.794
  169ETHO    O165016  13.818   7.963  11.773
  169ETHO    C165017  13.740   7.916  11.887
  169ETHO   H1165018  13.763   7.809  11.908
  169ETHO   H1365019  13.754   7.971  11.982
  169ETHO    C265020  13.588   7.927  11.861
  169ETHO   H2165021  13.570   8.023  11.806
  169ETHO   H2365022  13.542   7.925  11.962
  170ETHO    O165023  13.547   7.820  11.780
  170ETHO    C165024  13.408   7.825  11.752
  170ETHO   H1165025  13.382   7.763  11.664
  170ETHO   H1365026  13.389   7.933  11.736
  170ETHO    C265027  13.321   7.772  11.869
  170ETHO   H2165028  13.213   7.788  11.847
  170ETHO   H2365029  13.330   7.824  11.967
  171ETHO    O165030  13.342   7.628  11.878
  171ETHO    C165031  13.251   7.570  11.973
  171ETHO   H1165032  13.304   7.565  12.071
  171ETHO   H1365033  13.163   7.636  11.992
  171ETHO    C265034  13.206   7.429  11.920
  171ETHO   H2165035  13.171   7.448  11.817
  171ETHO   H2365036  13.126   7.380  11.979
  172ETHO    O165037  13.305   7.331  11.923
  172ETHO    C165038  13.293   7.227  11.827
  172ETHO   H1165039  13.270   7.276  11.730
  172ETHO   H1365040  13.204   7.171  11.862
  172ETHO    C265041  13.414   7.144  11.817
  172ETHO   H2165042  13.378   7.049  11.772
  172ETHO   H2365043  13.459   7.132  11.918
  173ETHO    O165044  13.514   7.198  11.732
  173ETHO    C165045  13.599   7.097  11.693
  173ETHO   H1165046  13.652   7.055  11.781
  173ETHO   H1365047  13.542   7.013  11.647
  173ETHO    C265048  13.713   7.150  11.596
  173ETHO   H2165049  13.753   7.249  11.629
  173ETHO   H2365050  13.805   7.089  11.603
  174ETHO    O165051  13.672   7.155  11.454
  174ETHO    C165052  13.779   7.205  11.371
  174ETHO   H1165053  13.878   7.169  11.406
  174ETHO   H1365054  13.763   7.171  11.267
  174ETHO    C265055  13.798   7.359  11.365
  174ETHO   H2165056  13.901   7.375  11.327
  174ETHO   H2365057  13.773   7.402  11.464
  175ETHO    O165058  13.706   7.423  11.274
  175ETHO    C165059  13.769   7.455  11.150
  175ETHO   H1165060  13.700   7.525  11.100
  175ETHO   H1365061  13.861   7.510  11.177
  175ETHO    C265062  13.808   7.336  11.057
  175ETHO   H2165063  13.832   7.384  10.960
  175ETHO   H2365064  13.729   7.259  11.048
  176ETHO    O165065  13.928   7.279  11.114
  176ETHO    C165066  13.972   7.164  11.042
  176ETHO   H1165067  13.895   7.085  11.034
  176ETHO   H1365068  13.992   7.201  10.939
  176ETHO    C265069  14.108   7.114  11.090
  176ETHO   H2165070  14.178   7.199  11.075
  176ETHO   H2365071  14.135   7.036  11.017
  177ETHO    O165072  14.110   7.067  11.226
  177ETHO    C165073  14.180   7.161  11.309
  177ETHO   H1165074  14.156   7.125  11.412
  177ETHO   H1365075  14.137   7.262  11.292
  177ETHO    C265076  14.331   7.162  11.291
  177ETHO   H2165077  14.372   7.237  11.363
  177ETHO   H2365078  14.365   7.179  11.187
  178ETHO    O165079  14.397   7.049  11.338
  178ETHO    C165080  14.536   7.049  11.318
  178ETHO   H1165081  14.553   7.050  11.208
  178ETHO   H1365082  14.576   7.139  11.370
  178ETHO    C265083  14.601   6.923  11.367
  178ETHO   H2165084  14.657   6.882  11.281
  178ETHO   H2365085  14.522   6.853  11.402
  179ETHO    O165086  14.674   6.947  11.484
  179ETHO    C165087  14.752   6.831  11.520
  179ETHO   H1165088  14.770   6.771  11.427
  179ETHO   H1365089  14.691   6.764  11.585
  179ETHO    C265090  14.887   6.865  11.594
  179ETHO   H2165091  14.924   6.780  11.655
  179ETHO   H2365092  14.866   6.945  11.667
  180ETHO    O165093  14.984   6.900  11.499
  180ETHO    C165094  15.105   6.957  11.558
  180ETHO   H1165095  15.166   7.011  11.482
  180ETHO   H1365096  15.076   7.035  11.631
  180ETHO    C265097  15.194   6.858  11.637
  180ETHO   H2165098  15.146   6.832  11.734
  180ETHO   H2365099  15.286   6.914  11.663
  181ETHO    O165100  15.214   6.738  11.567
  181ETHO    C165101  15.275   6.753  11.436
  181ETHO   H1165102  15.363   6.820  11.446
  181ETHO   H1365103  15.193   6.801  11.378
  181ETHO    C265104  15.312   6.611  11.382
  181ETHO   H2165105  15.352   6.608  11.278
  181ETHO   H2365106  15.221   6.548  11.379
  182ETHO    O165107  15.402   6.553  11.472
  182ETHO    C165108  15.474   6.445  11.416
  182ETHO   H1165109  15.404   6.368  11.376
  182ETHO   H1365110  15.540   6.478  11.333
  182ETHO    C265111  15.566   6.387  11.524
  182ETHO   H2165112  15.607   6.480  11.569
  182ETHO   H2365113  15.650   6.332  11.475
  183ETHO    O165114  15.508   6.307  11.621
  183ETHO    C165115  15.600   6.225  11.694
  183ETHO   H1165116  15.665   6.154  11.641
  183ETHO   H1365117  15.535   6.152  11.746
  183ETHO    C265118  15.699   6.296  11.792
  183ETHO   H2165119  15.721   6.218  11.868
  183ETHO   H2365120  15.651   6.383  11.840
  184ETHO    O165121  15.824   6.336  11.727
  184ETHO    C165122  15.885   6.437  11.802
  184ETHO   H1165123  15.824   6.530  11.799
  184ETHO   H1365124  15.898   6.398  11.905
  184ETHO    C265125  16.024   6.490  11.759
  184ETHO   H2165126  16.088   6.401  11.746
  184ETHO   H2365127  16.053   6.571  11.829
  185ETHO    O165128  16.018   6.540  11.623
  185ETHO    C165129  16.137   6.613  11.594
  185ETHO   H1165130  16.128   6.649  11.489
  185ETHO   H1365131  16.119   6.701  11.659
  185ETHO    C265132  16.270   6.542  11.602
  185ETHO   H2165133  16.275   6.481  11.694
  185ETHO   H2365134  16.340   6.628  11.607
  186ETHO    O165135  16.297   6.451  11.490
  186ETHO    C165136  16.245   6.315  11.504
  186ETHO   H1165137  16.232   6.288  11.611
  186ETHO   H1365138  16.151   6.298  11.449
  186ETHO    C265139  16.364   6.232  11.457
  186ETHO   H2165140  16.441   6.246  11.536
  186ETHO   H2365141  16.392   6.269  11.357
  187ETHO    O165142  16.334   6.090  11.457
  187ETHO    C165143  16.456   6.023  11.426
  187ETHO   H1165144  16.502   6.052  11.329
  187ETHO   H1365145  16.529   6.044  11.506
  187ETHO    C265146  16.439   5.873  11.424
  187ETHO   H2165147  16.376   5.851  11.513
  187ETHO   H2365148  16.538   5.828  11.445
  188ETHO    O165149  16.384   5.824  11.299
  188ETHO    C165150  16.353   5.691  11.325
  188ETHO   H1165151  16.286   5.688  11.413
  188ETHO   H1365152  16.448   5.639  11.352
  188ETHO    C265153  16.291   5.615  11.208
  188ETHO   H2165154  16.263   5.515  11.248
  188ETHO   H2365155  16.369   5.603  11.130
  189ETHO    O165156  16.173   5.674  11.151
  189ETHO    C165157  16.132   5.619  11.026
  189ETHO   H1165158  16.029   5.659  11.013
  189ETHO   H1365159  16.200   5.661  10.949
  189ETHO    C265160  16.113   5.465  11.000
  189ETHO   H2165161  16.214   5.423  11.020
  189ETHO   H2365162  16.096   5.454  10.890
  190ETHO    O165163  16.016   5.397  11.077
  190ETHO    C165164  15.997   5.270  11.017
  190ETHO   H1165165  16.087   5.247  10.956
  190ETHO   H1365166  15.910   5.271  10.949
  190ETHO    C265167  15.972   5.166  11.125
  190ETHO   H2165168  15.935   5.076  11.071
  190ETHO   H2365169  15.904   5.192  11.208
  191ETHO    O165170  16.096   5.126  11.183
  191ETHO    C165171  16.077   5.011  11.272
  191ETHO   H1165172  16.022   5.048  11.361
  191ETHO   H1365173  16.026   4.931  11.215
  191ETHO    C265174  16.211   4.952  11.316
  191ETHO   H2165175  16.194   4.900  11.412
  191ETHO   H2365176  16.274   5.042  11.335
  192ETHO    O165177  16.266   4.867  11.221
  192ETHO    C165178  16.390   4.818  11.262
  192ETHO   H1165179  16.419   4.740  11.188
  192ETHO   H1365180  16.381   4.780  11.366
  192ETHO    C265181  16.508   4.917  11.258
  192ETHO   H2165182  16.592   4.869  11.313
  192ETHO   H2365183  16.485   5.009  11.316
  193ETHO    O165184  16.536   4.954  11.120
  193ETHO    C165185  16.616   4.853  11.057
  193ETHO   H1165186  16.706   4.838  11.120
  193ETHO   H1365187  16.569   4.752  11.051
  193ETHO    C265188  16.660   4.901  10.920
  193ETHO   H2165189  16.580   4.947  10.858
  193ETHO   H2365190  16.689   4.809  10.864
  194ETHO    O165191  16.766   4.996  10.938
  194ETHO    C165192  16.792   5.053  10.813
  194ETHO   H1165193  16.694   5.078  10.766
  194ETHO   H1365194  16.843   4.981  10.745
  194ETHO    C265195  16.878   5.178  10.821
  194ETHO   H2165196  16.862   5.226  10.722
  194ETHO   H2365197  16.981   5.144  10.847
  195ETHO    O165198  16.834   5.275  10.914
  195ETHO    C165199  16.914   5.390  10.924
  195ETHO   H1165200  17.005   5.371  10.985
  195ETHO   H1365201  16.942   5.431  10.824
  195ETHO    C265202  16.844   5.498  11.015
  195ETHO   H2165203  16.913   5.585  11.022
  195ETHO   H2365204  16.830   5.456  11.116
  196ETHO    O165205  16.714   5.537  10.957
  196ETHO    C165206  16.669   5.662  10.999
  196ETHO   H1165207  16.571   5.687  10.954
  196ETHO   H1365208  16.665   5.666  11.110
  196ETHO    C265209  16.756   5.790  10.957
  196ETHO   H2165210  16.728   5.814  10.853
  196ETHO   H2365211  16.865   5.771  10.963
  197ETHO    O165212  16.721   5.901  11.043
  197ETHO    C165213  16.759   6.031  11.004
  197ETHO   H1165214  16.864   6.054  11.034
  197ETHO   H1365215  16.754   6.039  10.893
  197ETHO    C265216  16.676   6.145  11.058
  197ETHO   H2165217  16.734   6.240  11.057
  197ETHO   H2365218  16.662   6.125  11.166
  198ETHO    O165219  16.549   6.167  10.991
  198ETHO    C165220  16.458   6.237  11.080
  198ETHO   H1165221  16.445   6.175  11.171
  198ETHO   H1365222  16.490   6.339  11.108
  198ETHO    C265223  16.315   6.254  11.030
  198ETHO   H2165224  16.250   6.282  11.117
  198ETHO   H2365225  16.276   6.162  10.982
  199ETHO    O165226  16.324   6.359  10.930
  199ETHO    C165227  16.199   6.399  10.875
  199ETHO   H1165228  16.132   6.313  10.857
  199ETHO   H1365229  16.226   6.443  10.776
  199ETHO    C265230  16.127   6.504  10.967
  199ETHO   H2165231  16.047   6.556  10.911
  199ETHO   H2365232  16.203   6.583  10.986
  200ETHO    O165233  16.082   6.440  11.083
  200ETHO    C165234  16.012   6.530  11.166
  200ETHO   H1165235  16.075   6.605  11.217
  200ETHO   H1365236  15.938   6.595  11.114
  200ETHO    C265237  15.950   6.441  11.274
  200ETHO   H2165238  15.949   6.495  11.371
  200ETHO   H2365239  16.008   6.347  11.283
  201ETHO    O165240  15.814   6.399  11.249
  201ETHO    C165241  15.795   6.281  11.165
  201ETHO   H1165242  15.850   6.198  11.215
  201ETHO   H1365243  15.845   6.299  11.067
  201ETHO    C265244  15.646   6.256  11.149
  201ETHO   H2165245  15.597   6.254  11.249
  201ETHO   H2365246  15.628   6.157  11.103
  202ETHO    O165247  15.584   6.355  11.068
  202ETHO    C165248  15.454   6.328  11.030
  202ETHO   H1165249  15.445   6.228  10.984
  202ETHO   H1365250  15.389   6.331  11.120
  202ETHO    C265251  15.388   6.433  10.936
  202ETHO   H2165252  15.287   6.386  10.925
  202ETHO   H2365253  15.446   6.443  10.842
  203ETHO    O165254  15.369   6.550  11.008
  203ETHO    C165255  15.307   6.656  10.925
  203ETHO   H1165256  15.213   6.612  10.883
  203ETHO   H1365257  15.378   6.680  10.843
  203ETHO    C265258  15.269   6.776  11.011
  203ETHO   H2165259  15.362   6.824  11.046
  203ETHO   H2365260  15.211   6.728  11.093
  204ETHO    O165261  15.192   6.870  10.941
  204ETHO    C165262  15.143   6.963  11.041
  204ETHO   H1165263  15.103   6.907  11.128
  204ETHO   H1365264  15.225   7.030  11.075
  204ETHO    C265265  15.039   7.055  10.968
  204ETHO   H2165266  14.970   7.116  11.029
  204ETHO   H2365267  14.964   6.981  10.933
  205ETHO    O165268  15.086   7.127  10.846
  205ETHO    C165269  14.987   7.212  10.789
  205ETHO   H1165270  15.033   7.249  10.694
  205ETHO   H1365271  14.971   7.301  10.853
  205ETHO    C265272  14.857   7.144  10.742
  205ETHO   H2165273  14.876   7.042  10.705
  205ETHO   H2365274  14.816   7.197  10.652
  206ETHO    O165275  14.756   7.130  10.841
  206ETHO    C165276  14.675   7.241  10.834
  206ETHO   H1165277  14.731   7.329  10.873
  206ETHO   H1365278  14.628   7.258  10.735
  206ETHO    C265279  14.554   7.216  10.933
  206ETHO   H2165280  14.494   7.129  10.898
  206ETHO   H2365281  14.599   7.183  11.029
  207ETHO    O165282  14.459   7.324  10.943
  207ETHO    C165283  14.507   7.438  11.013
  207ETHO   H1165284  14.552   7.499  10.932
  207ETHO   H1365285  14.568   7.400  11.098
  207ETHO    C265286  14.390   7.508  11.085
  207ETHO   H2165287  14.421   7.589  11.154
  207ETHO   H2365288  14.337   7.422  11.132
  208ETHO    O165289  14.294   7.563  10.994
  208ETHO    C165290  14.330   7.689  10.935
  208ETHO   H1165291  14.429   7.677  10.887
  208ETHO   H1365292  14.258   7.714  10.854
  208ETHO    C265293  14.344   7.820  11.032
  208ETHO   H2165294  14.370   7.912  10.976
  208ETHO   H2365295  14.423   7.804  11.108
  209ETHO    O165296  14.225   7.851  11.104
  209ETHO    C165297  14.228   7.986  11.157
  209ETHO   H1165298  14.139   8.047  11.128
  209ETHO   H1365299  14.327   8.034  11.138
  209ETHO    C265300  14.207   7.996  11.315
  209ETHO   H2165301  14.125   7.930  11.349
  209ETHO   H2365302  14.176   8.102  11.329
  210ETHO    O165303  14.323   7.968  11.396
  210ETHO    C165304  14.351   7.828  11.409
  210ETHO   H1165305  14.309   7.795  11.506
  210ETHO   H1365306  14.302   7.765  11.332
  210ETHO    C265307  14.504   7.797  11.422
  210ETHO   H2165308  14.518   7.687  11.432
  210ETHO   H2365309  14.546   7.861  11.502
  211ETHO    O165310  14.569   7.819  11.300
  211ETHO    C165311  14.701   7.767  11.298
  211ETHO   H1165312  14.760   7.793  11.389
  211ETHO   H1365313  14.703   7.656  11.301
  211ETHO    C265314  14.778   7.804  11.166
  211ETHO   H2165315  14.723   7.771  11.075
  211ETHO   H2365316  14.874   7.751  11.179
  212ETHO    O165317  14.809   7.947  11.164
  212ETHO    C165318  14.718   8.024  11.084
  212ETHO   H1165319  14.720   7.978  10.983
  212ETHO   H1365320  14.622   8.027  11.139
  212ETHO    C265321  14.762   8.169  11.083
  212ETHO   H2165322  14.783   8.215  11.182
  212ETHO   H2365323  14.670   8.221  11.047
  213ETHO    O165324  14.874   8.196  10.997
  213ETHO    C165325  14.911   8.339  10.982
  213ETHO   H1165326  14.892   8.393  11.077
  213ETHO   H1365327  15.021   8.342  10.964
  213ETHO    C265328  14.818   8.412  10.883
  213ETHO   H2165329  14.835   8.378  10.778
  213ETHO   H2365330  14.866   8.512  10.892
  214ETHO    O165331  14.685   8.415  10.918
  214ETHO    C165332  14.620   8.522  10.858
  214ETHO   H1165333  14.642   8.524  10.749
  214ETHO   H1365334  14.655   8.622  10.891
  214ETHO    C265335  14.471   8.505  10.858
  214ETHO   H2165336  14.459   8.410  10.800
  214ETHO   H2365337  14.421   8.580  10.793
  215ETHO    O165338  14.408   8.502  10.986
  215ETHO    C165339  14.270   8.511  10.977
  215ETHO   H1165340  14.241   8.604  11.032
  215ETHO   H1365341  14.234   8.532  10.874
  215ETHO    C265342  14.190   8.385  11.023
  215ETHO   H2165343  14.087   8.409  11.058
  215ETHO   H2365344  14.236   8.332  11.110
  216ETHO    O165345  14.169   8.292  10.910
  216ETHO    C165346  14.043   8.304  10.852
  216ETHO   H1165347  14.018   8.403  10.807
  216ETHO   H1365348  13.968   8.300  10.934
  216ETHO    C265349  14.031   8.180  10.758
  216ETHO   H2165350  13.923   8.172  10.730
  216ETHO   H2365351  14.060   8.091  10.818
  217ETHO    O165352  14.097   8.186  10.629
  217ETHO    C165353  14.098   8.068  10.557
  217ETHO   H1165354  14.190   8.053  10.495
  217ETHO   H1365355  14.095   7.984  10.631
  217ETHO    C265356  13.980   8.046  10.466
  217ETHO   H2165357  13.992   7.958  10.399
  217ETHO   H2365358  13.977   8.131  10.394
  218ETHO    O165359  13.867   8.017  10.547
  218ETHO    C165360  13.744   8.073  10.491
  218ETHO   H1165361  13.721   8.017  10.397
  218ETHO   H1365362  13.755   8.179  10.462
  218ETHO    C265363  13.617   8.051  10.573
  218ETHO   H2165364  13.632   7.949  10.612
  218ETHO   H2365365  13.527   8.054  10.508
  219ETHO    O165366  13.608   8.146  10.677
  219ETHO    C165367  13.517   8.111  10.781
  219ETHO   H1165368  13.412   8.114  10.745
  219ETHO   H1365369  13.525   8.004  10.811
  219ETHO    C265370  13.532   8.197  10.901
  219ETHO   H2165371  13.453   8.167  10.974
  219ETHO   H2365372  13.517   8.304  10.875
  220ETHO    O165373  13.660   8.177  10.961
  220ETHO    C165374  13.700   8.290  11.050
  220ETHO   H1165375  13.624   8.371  11.048
  220ETHO   H1365376  13.798   8.322  11.009
  220ETHO    C265377  13.714   8.249  11.195
  220ETHO   H2165378  13.778   8.324  11.246
  220ETHO   H2365379  13.776   8.158  11.210
  221ETHO    O165380  13.595   8.243  11.272
  221ETHO    C165381  13.616   8.228  11.414
  221ETHO   H1165382  13.721   8.253  11.440
  221ETHO   H1365383  13.549   8.295  11.473
  221ETHO    C265384  13.613   8.079  11.469
  221ETHO   H2165385  13.510   8.040  11.454
  221ETHO   H2365386  13.621   8.086  11.580
  222ETHO    O165387  13.722   7.995  11.423
  222ETHO    C165388  13.699   7.855  11.451
  222ETHO   H1165389  13.725   7.829  11.556
  222ETHO   H1365390  13.593   7.833  11.424
  222ETHO    C265391  13.775   7.779  11.341
  222ETHO   H2165392  13.792   7.673  11.367
  222ETHO   H2365393  13.878   7.821  11.333
  223ETHO    O165394  13.717   7.789  11.209
  223ETHO    C165395  13.750   7.907  11.139
  223ETHO   H1165396  13.658   7.969  11.132
  223ETHO   H1365397  13.827   7.977  11.178
  223ETHO    C265398  13.788   7.870  10.998
  223ETHO   H2165399  13.759   7.960  10.940
  223ETHO   H2365400  13.721   7.794  10.953
  224ETHO    O165401  13.929   7.854  10.988
  224ETHO    C165402  13.973   7.841  10.858
  224ETHO   H1165403  13.914   7.901  10.786
  224ETHO   H1365404  14.078   7.878  10.862
  224ETHO    C265405  13.960   7.698  10.816
  224ETHO   H2165406  13.859   7.655  10.833
  224ETHO   H2365407  14.031   7.653  10.889
  225ETHO    O165408  14.001   7.677  10.683
  225ETHO    C165409  13.887   7.654  10.595
  225ETHO   H1165410  13.813   7.735  10.612
  225ETHO   H1365411  13.833   7.558  10.613
  225ETHO    C265412  13.935   7.645  10.447
  225ETHO   H2165413  13.993   7.735  10.415
  225ETHO   H2365414  13.842   7.655  10.389
  226ETHO    O165415  13.992   7.522  10.408
  226ETHO    C165416  14.063   7.540  10.284
  226ETHO   H1165417  13.995   7.560  10.198
  226ETHO   H1365418  14.128   7.629  10.297
  226ETHO    C265419  14.151   7.419  10.247
  226ETHO   H2165420  14.236   7.415  10.318
  226ETHO   H2365421  14.199   7.440  10.149
  227ETHO    O165422  14.096   7.281  10.247
  227ETHO    C165423  13.966   7.269  10.181
  227ETHO   H1165424  13.982   7.316  10.082
  227ETHO   H1365425  13.885   7.320  10.238
  227ETHO    C265426  13.921   7.125  10.163
  227ETHO   H2165427  13.919   7.076  10.262
  227ETHO   H2365428  13.987   7.069  10.092
  228ETHO    O165429  13.794   7.120  10.100
  228ETHO    C165430  13.752   6.984  10.079
  228ETHO   H1165431  13.810   6.921  10.149
  228ETHO   H1365432  13.644   6.980  10.105
  228ETHO    C265433  13.762   6.949   9.928
  228ETHO   H2165434  13.717   7.032   9.871
  228ETHO   H2365435  13.700   6.858   9.914
  229ETHO    O165436  13.891   6.905   9.894
  229ETHO    C165437  13.966   7.002   9.822
  229ETHO   H1165438  13.953   7.096   9.880
  229ETHO   H1365439  13.923   7.011   9.720
  229ETHO    C265440  14.113   6.980   9.836
  229ETHO   H2165441  14.135   6.956   9.942
  229ETHO   H2365442  14.167   7.076   9.824
  230ETHO    O165443  14.156   6.874   9.745
  230ETHO    C165444  14.282   6.841   9.774
  230ETHO   H1165445  14.336   6.932   9.809
  230ETHO   H1365446  14.289   6.763   9.853
  230ETHO    C265447  14.344   6.776   9.650
  230ETHO   H2165448  14.439   6.721   9.668
  230ETHO   H2365449  14.379   6.866   9.596
  231ETHO    O165450  14.261   6.677   9.589
  231ETHO    C165451  14.303   6.643   9.454
  231ETHO   H1165452  14.414   6.647   9.453
  231ETHO   H1365453  14.268   6.723   9.386
  231ETHO    C265454  14.254   6.508   9.389
  231ETHO   H2165455  14.260   6.531   9.281
  231ETHO   H2365456  14.148   6.483   9.411
  232ETHO    O165457  14.328   6.396   9.432
  232ETHO    C165458  14.284   6.280   9.375
  232ETHO   H1165459  14.183   6.264   9.418
  232ETHO   H1365460  14.287   6.301   9.265
  232ETHO    C265461  14.354   6.153   9.395
  232ETHO   H2165462  14.459   6.175   9.366
  232ETHO   H2365463  14.302   6.081   9.329
  233ETHO    O165464  14.353   6.108   9.533
  233ETHO    C165465  14.434   5.994   9.545
  233ETHO   H1165466  14.399   5.901   9.496
  233ETHO   H1365467  14.532   6.021   9.500
  233ETHO    C265468  14.469   5.960   9.691
  233ETHO   H2165469  14.500   6.052   9.745
  233ETHO   H2365470  14.561   5.899   9.682
  234ETHO    O165471  14.374   5.885   9.764
  234ETHO    C165472  14.431   5.814   9.874
  234ETHO   H1165473  14.509   5.746   9.834
  234ETHO   H1365474  14.478   5.892   9.938
  234ETHO    C265475  14.319   5.735   9.945
  234ETHO   H2165476  14.227   5.794   9.963
  234ETHO   H2365477  14.366   5.700  10.040
  235ETHO    O165478  14.281   5.625   9.856
  235ETHO    C165479  14.145   5.582   9.893
  235ETHO   H1165480  14.087   5.667   9.935
  235ETHO   H1365481  14.105   5.534   9.801
  235ETHO    C265482  14.138   5.475  10.009
  235ETHO   H2165483  14.031   5.447  10.019
  235ETHO   H2365484  14.177   5.525  10.100
  236ETHO    O165485  14.223   5.363   9.977
  236ETHO    C165486  14.242   5.280  10.092
  236ETHO   H1165487  14.147   5.243  10.137
  236ETHO   H1365488  14.296   5.337  10.170
  236ETHO    C265489  14.337   5.165  10.056
  236ETHO   H2165490  14.293   5.107   9.972
  236ETHO   H2365491  14.330   5.098  10.144
  237ETHO    O165492  14.474   5.195  10.040
  237ETHO    C165493  14.553   5.070  10.032
  237ETHO   H1165494  14.529   5.004  10.117
  237ETHO   H1365495  14.510   5.014   9.946
  237ETHO    C265496  14.701   5.100  10.020
  237ETHO   H2165497  14.727   5.146  10.118
  237ETHO   H2365498  14.730   5.173   9.942
  238ETHO    O165499  14.779   4.982   9.997
  238ETHO    C165500  14.912   5.022   9.952
  238ETHO   H1165501  14.957   5.087  10.030
  238ETHO   H1365502  14.901   5.088   9.863
  238ETHO    C265503  15.003   4.904   9.922
  238ETHO   H2165504  14.987   4.836  10.008
  238ETHO   H2365505  15.112   4.921   9.925
  239ETHO    O165506  14.980   4.848   9.794
  239ETHO    C165507  15.038   4.717   9.774
  239ETHO   H1165508  15.117   4.683   9.844
  239ETHO   H1365509  14.954   4.648   9.796
  239ETHO    C265510  15.084   4.693   9.630
  239ETHO   H2165511  15.000   4.669   9.561
  239ETHO   H2365512  15.136   4.782   9.589
  240ETHO    O165513  15.183   4.592   9.628
  240ETHO    C165514  15.220   4.566   9.490
  240ETHO   H1165515  15.198   4.659   9.432
  240ETHO   H1365516  15.151   4.489   9.451
  240ETHO    C265517  15.366   4.516   9.494
  240ETHO   H2165518  15.381   4.475   9.391
  240ETHO   H2365519  15.375   4.436   9.570
  241ETHO    O165520  15.457   4.614   9.531
  241ETHO    C165521  15.521   4.670   9.412
  241ETHO   H1165522  15.582   4.593   9.359
  241ETHO   H1365523  15.447   4.710   9.339
  241ETHO    C265524  15.620   4.778   9.455
  241ETHO   H2165525  15.679   4.809   9.366
  241ETHO   H2365526  15.698   4.743   9.526
  242ETHO    O165527  15.559   4.901   9.507
  242ETHO    C165528  15.648   5.003   9.537
  242ETHO   H1165529  15.696   5.024   9.439
  242ETHO   H1365530  15.717   4.969   9.618
  242ETHO    C265531  15.554   5.115   9.586
  242ETHO   H2165532  15.608   5.189   9.650
  242ETHO   H2365533  15.466   5.071   9.638
  243ETHO    O165534  15.502   5.180   9.470
  243ETHO    C165535  15.400   5.106   9.399
  243ETHO   H1165536  15.443   5.015   9.351
  243ETHO   H1365537  15.317   5.077   9.467
  243ETHO    C265538  15.348   5.201   9.286
  243ETHO   H2165539  15.438   5.222   9.224
  243ETHO   H2365540  15.316   5.295   9.335
  244ETHO    O165541  15.256   5.133   9.201
  244ETHO    C165542  15.133   5.100   9.264
  244ETHO   H1165543  15.103   5.189   9.324
  244ETHO   H1365544  15.141   5.014   9.333
  244ETHO    C265545  15.040   5.056   9.150
  244ETHO   H2165546  15.014   5.130   9.070
  244ETHO   H2365547  14.955   5.057   9.222
  245ETHO    O165548  15.074   4.929   9.097
  245ETHO    C165549  14.963   4.840   9.090
  245ETHO   H1165550  14.939   4.811   9.194
  245ETHO   H1365551  14.875   4.893   9.047
  245ETHO    C265552  14.997   4.723   9.000
  245ETHO   H2165553  15.028   4.762   8.900
  245ETHO   H2365554  14.904   4.670   8.970
  246ETHO    O165555  15.061   4.611   9.054
  246ETHO    C165556  15.188   4.649   9.096
  246ETHO   H1165557  15.192   4.689   9.199
  246ETHO   H1365558  15.235   4.730   9.035
  246ETHO    C265559  15.284   4.528   9.091
  246ETHO   H2165560  15.387   4.565   9.109
  246ETHO   H2365561  15.279   4.493   8.986
  247ETHO    O165562  15.258   4.435   9.194
  247ETHO    C165563  15.211   4.314   9.153
  247ETHO   H1165564  15.119   4.343   9.098
  247ETHO   H1365565  15.272   4.264   9.075
  247ETHO    C265566  15.182   4.216   9.272
  247ETHO   H2165567  15.130   4.251   9.363
  247ETHO   H2365568  15.118   4.137   9.226
  248ETHO    O165569  15.309   4.166   9.314
  248ETHO    C165570  15.301   4.047   9.396
  248ETHO   H1165571  15.195   4.013   9.407
  248ETHO   H1365572  15.345   3.971   9.328
  248ETHO    C265573  15.392   4.041   9.524
  248ETHO   H2165574  15.463   4.125   9.516
  248ETHO   H2365575  15.451   3.948   9.541
  249ETHO    O165576  15.315   4.061   9.642
  249ETHO    C165577  15.406   4.045   9.749
  249ETHO   H1165578  15.478   3.959   9.745
  249ETHO   H1365579  15.464   4.139   9.735
  249ETHO    C265580  15.331   4.054   9.883
  249ETHO   H2165581  15.278   4.151   9.892
  249ETHO   H2365582  15.413   4.053   9.957
  250ETHO    O165583  15.239   3.947   9.907
  250ETHO    C165584  15.298   3.844   9.979
  250ETHO   H1165585  15.395   3.812   9.937
  250ETHO   H1365586  15.324   3.872  10.084
  250ETHO    C265587  15.221   3.712   9.972
  250ETHO   H2165588  15.122   3.724  10.021
  250ETHO   H2365589  15.268   3.638  10.041
  251ETHO    O165590  15.218   3.669   9.836
  251ETHO    C165591  15.180   3.535   9.825
  251ETHO   H1165592  15.250   3.463   9.873
  251ETHO   H1365593  15.187   3.505   9.718
  251ETHO    C265594  15.033   3.502   9.876
  251ETHO   H2165595  14.958   3.558   9.817
  251ETHO   H2365596  15.032   3.519   9.986
  252ETHO    O165597  15.020   3.361   9.847
  252ETHO    C165598  14.890   3.314   9.878
  252ETHO   H1165599  14.851   3.353   9.975
  252ETHO   H1365600  14.831   3.372   9.803
  252ETHO    C265601  14.875   3.161   9.872
  252ETHO   H2165602  14.817   3.136   9.963
  252ETHO   H2365603  14.976   3.119   9.890
  253ETHO    O165604  14.842   3.106   9.744
  253ETHO    C165605  14.846   2.959   9.740
  253ETHO   H1165606  14.942   2.914   9.775
  253ETHO   H1365607  14.835   2.939   9.631
  253ETHO    C265608  14.720   2.891   9.797
  253ETHO   H2165609  14.723   2.785   9.764
  253ETHO   H2365610  14.628   2.941   9.762
  254ETHO    O165611  14.730   2.896   9.938
  254ETHO    C165612  14.618   2.841  10.005
  254ETHO   H1165613  14.525   2.875   9.954
  254ETHO   H1365614  14.634   2.731   9.996
  254ETHO    C265615  14.611   2.868  10.155
  254ETHO   H2165616  14.714   2.868  10.197
  254ETHO   H2365617  14.568   2.782  10.211
  255ETHO    O165618  14.548   2.990  10.198
  255ETHO    C165619  14.403   2.974  10.194
  255ETHO   H1165620  14.374   2.875  10.234
  255ETHO   H1365621  14.381   2.998  10.088
  255ETHO    C265622  14.335   3.085  10.272
  255ETHO   H2165623  14.372   3.086  10.377
  255ETHO   H2365624  14.227   3.064  10.261
  256ETHO    O165625  14.357   3.212  10.197
  256ETHO    C165626  14.316   3.327  10.273
  256ETHO   H1165627  14.206   3.326  10.289
  256ETHO   H1365628  14.370   3.339  10.369
  256ETHO    C265629  14.360   3.447  10.190
  256ETHO   H2165630  14.467   3.429  10.169
  256ETHO   H2365631  14.349   3.545  10.242
  257ETHO    O165632  14.279   3.448  10.076
  257ETHO    C165633  14.297   3.566  10.007
  257ETHO   H1165634  14.402   3.572   9.970
  257ETHO   H1365635  14.279   3.652  10.075
  257ETHO    C265636  14.217   3.574   9.873
  257ETHO   H2165637  14.227   3.681   9.844
  257ETHO   H2365638  14.106   3.570   9.884
  258ETHO    O165639  14.269   3.495   9.767
  258ETHO    C165640  14.211   3.517   9.636
  258ETHO   H1165641  14.111   3.469   9.633
  258ETHO   H1365642  14.205   3.626   9.617
  258ETHO    C265643  14.285   3.450   9.520
  258ETHO   H2165644  14.210   3.408   9.450
  258ETHO   H2365645  14.338   3.363   9.566
  259ETHO    O165646  14.379   3.534   9.450
  259ETHO    C165647  14.472   3.463   9.372
  259ETHO   H1165648  14.510   3.368   9.415
  259ETHO   H1365649  14.413   3.428   9.284
  259ETHO    C265650  14.586   3.553   9.310
  259ETHO   H2165651  14.655   3.485   9.257
  259ETHO   H2365652  14.645   3.615   9.381
  260ETHO    O165653  14.537   3.633   9.201
  260ETHO    C165654  14.646   3.698   9.136
  260ETHO   H1165655  14.672   3.797   9.181
  260ETHO   H1365656  14.735   3.635   9.157
  260ETHO    C265657  14.630   3.719   8.989
  260ETHO   H2165658  14.552   3.653   8.943
  260ETHO   H2365659  14.729   3.697   8.944
  261ETHO    O165660  14.584   3.855   8.945
  261ETHO    C165661  14.565   3.864   8.809
  261ETHO   H1165662  14.660   3.827   8.763
  261ETHO   H1365663  14.488   3.788   8.785
  261ETHO    C265664  14.525   4.000   8.753
  261ETHO   H2165665  14.429   4.021   8.805
  261ETHO   H2365666  14.519   3.990   8.642
  262ETHO    O165667  14.633   4.093   8.781
  262ETHO    C165668  14.593   4.185   8.885
  262ETHO   H1165669  14.549   4.129   8.970
  262ETHO   H1365670  14.512   4.248   8.841
  262ETHO    C265671  14.710   4.268   8.944
  262ETHO   H2165672  14.731   4.350   8.872
  262ETHO   H2365673  14.797   4.200   8.961
  263ETHO    O165674  14.671   4.327   9.071
  263ETHO    C165675  14.772   4.416   9.113
  263ETHO   H1165676  14.747   4.508   9.055
  263ETHO   H1365677  14.873   4.392   9.075
  263ETHO    C265678  14.764   4.462   9.258
  263ETHO   H2165679  14.657   4.457   9.290
  263ETHO   H2365680  14.783   4.571   9.258
  264ETHO    O165681  14.851   4.392   9.339
  264ETHO    C165682  14.805   4.402   9.476
  264ETHO   H1165683  14.719   4.334   9.490
  264ETHO   H1365684  14.788   4.508   9.503
  264ETHO    C265685  14.914   4.354   9.573
  264ETHO   H2165686  14.887   4.394   9.673
  264ETHO   H2365687  15.013   4.388   9.535
  265ETHO    O165688  14.913   4.206   9.572
  265ETHO    C165689  15.019   4.160   9.656
  265ETHO   H1165690  15.048   4.061   9.615
  265ETHO   H1365691  15.110   4.223   9.647
  265ETHO    C265692  14.976   4.146   9.798
  265ETHO   H2165693  15.023   4.057   9.845
  265ETHO   H2365694  14.869   4.115   9.794
  265ETHO    OZ65695  15.004   4.260   9.877
  265ETHO   HZ165696  14.996   4.238   9.970
    1ETHO    O165697  14.634   6.099  15.499
    1ETHO   HO165698  14.542   6.121  15.515
    1ETHO    C165699  14.697   6.113  15.629
    1ETHO   H1165700  14.692   6.214  15.676
    1ETHO   H1365701  14.803   6.080  15.624
    1ETHO    C265702  14.631   6.014  15.736
    1ETHO   H2165703  14.698   6.032  15.822
    1ETHO   H2365704  14.635   5.911  15.693
    2ETHO    O165705  14.496   6.045  15.774
    2ETHO    C165706  14.422   5.929  15.793
    2ETHO   H1165707  14.488   5.851  15.836
    2ETHO   H1365708  14.335   5.944  15.860
    2ETHO    C265709  14.367   5.879  15.667
    2ETHO   H2165710  14.303   5.789  15.675
    2ETHO   H2365711  14.452   5.849  15.603
    3ETHO    O165712  14.295   5.982  15.603
    3ETHO    C165713  14.217   5.940  15.495
    3ETHO   H1165714  14.130   5.881  15.531
    3ETHO   H1365715  14.274   5.868  15.431
    3ETHO    C265716  14.175   6.057  15.398
    3ETHO   H2165717  14.143   6.025  15.297
    3ETHO   H2365718  14.266   6.118  15.383
    4ETHO    O165719  14.079   6.147  15.446
    4ETHO    C165720  14.062   6.270  15.366
    4ETHO   H1165721  14.050   6.355  15.437
    4ETHO   H1365722  14.159   6.288  15.315
    4ETHO    C265723  13.934   6.265  15.287
    4ETHO   H2165724  13.854   6.251  15.362
    4ETHO   H2365725  13.925   6.174  15.225
    5ETHO    O165726  13.919   6.379  15.210
    5ETHO    C165727  14.013   6.389  15.105
    5ETHO   H1165728  14.107   6.432  15.145
    5ETHO   H1365729  14.028   6.286  15.067
    5ETHO    C265730  13.971   6.486  14.985
    5ETHO   H2165731  14.049   6.512  14.911
    5ETHO   H2365732  13.948   6.589  15.018
    6ETHO    O165733  13.861   6.423  14.915
    6ETHO    C165734  13.812   6.513  14.815
    6ETHO   H1165735  13.776   6.608  14.861
    6ETHO   H1365736  13.903   6.536  14.754
    6ETHO    C265737  13.712   6.445  14.722
    6ETHO   H2165738  13.749   6.346  14.686
    6ETHO   H2365739  13.680   6.511  14.639
    7ETHO    O165740  13.596   6.430  14.800
    7ETHO    C165741  13.492   6.356  14.732
    7ETHO   H1165742  13.455   6.427  14.655
    7ETHO   H1365743  13.539   6.271  14.678
    7ETHO    C265744  13.378   6.331  14.834
    7ETHO   H2165745  13.429   6.280  14.918
    7ETHO   H2365746  13.295   6.268  14.797
    8ETHO    O165747  13.316   6.456  14.881
    8ETHO    C165748  13.248   6.433  15.003
    8ETHO   H1165749  13.315   6.401  15.086
    8ETHO   H1365750  13.172   6.354  14.984
    8ETHO    C265751  13.174   6.559  15.049
    8ETHO   H2165752  13.103   6.527  15.128
    8ETHO   H2365753  13.126   6.616  14.967
    9ETHO    O165754  13.268   6.642  15.114
    9ETHO    C165755  13.210   6.759  15.169
    9ETHO   H1165756  13.115   6.786  15.119
    9ETHO   H1365757  13.185   6.740  15.275
    9ETHO    C265758  13.300   6.883  15.161
    9ETHO   H2165759  13.234   6.969  15.184
    9ETHO   H2365760  13.330   6.881  15.054
   10ETHO    O165761  13.407   6.891  15.250
   10ETHO    C165762  13.507   6.990  15.222
   10ETHO   H1165763  13.458   7.082  15.185
   10ETHO   H1365764  13.574   6.945  15.146
   10ETHO    C265765  13.602   7.026  15.344
   10ETHO   H2165766  13.531   7.065  15.421
   10ETHO   H2365767  13.682   7.099  15.320
   11ETHO    O165768  13.673   6.923  15.405
   11ETHO    C165769  13.755   6.981  15.511
   11ETHO   H1165770  13.834   7.043  15.463
   11ETHO   H1365771  13.693   7.052  15.571
   11ETHO    C265772  13.818   6.884  15.610
   11ETHO   H2165773  13.743   6.836  15.677
   11ETHO   H2365774  13.870   6.806  15.549
   12ETHO    O165775  13.912   6.963  15.679
   12ETHO    C165776  13.998   6.891  15.773
   12ETHO   H1165777  14.094   6.884  15.717
   12ETHO   H1365778  13.946   6.795  15.795
   12ETHO    C265779  14.013   6.972  15.894
   12ETHO   H2165780  14.037   6.901  15.975
   12ETHO   H2365781  13.921   7.022  15.931
   13ETHO    O165782  14.112   7.075  15.887
   13ETHO    C165783  14.231   7.031  15.943
   13ETHO   H1165784  14.208   7.016  16.051
   13ETHO   H1365785  14.267   6.940  15.891
   13ETHO    C265786  14.327   7.144  15.928
   13ETHO   H2165787  14.328   7.172  15.821
   13ETHO   H2365788  14.426   7.098  15.950
   14ETHO    O165789  14.289   7.266  16.005
   14ETHO    C165790  14.384   7.366  15.977
   14ETHO   H1165791  14.381   7.392  15.869
   14ETHO   H1365792  14.483   7.332  16.014
   14ETHO    C265793  14.359   7.492  16.062
   14ETHO   H2165794  14.457   7.532  16.097
   14ETHO   H2365795  14.292   7.464  16.146
   15ETHO    O165796  14.287   7.588  15.987
   15ETHO    C165797  14.234   7.690  16.073
   15ETHO   H1165798  14.145   7.660  16.132
   15ETHO   H1365799  14.308   7.737  16.141
   15ETHO    C265800  14.182   7.808  15.984
   15ETHO   H2165801  14.133   7.783  15.887
   15ETHO   H2365802  14.101   7.849  16.048
   16ETHO    O165803  14.285   7.905  15.952
   16ETHO    C165804  14.229   8.024  15.889
   16ETHO   H1165805  14.156   7.994  15.810
   16ETHO   H1365806  14.173   8.085  15.963
   16ETHO    C265807  14.343   8.109  15.830
   16ETHO   H2165808  14.387   8.054  15.744
   16ETHO   H2365809  14.413   8.139  15.911
   17ETHO    O165810  14.290   8.232  15.782
   17ETHO    C165811  14.395   8.315  15.728
   17ETHO   H1165812  14.494   8.265  15.721
   17ETHO   H1365813  14.359   8.345  15.627
   17ETHO    C265814  14.408   8.429  15.835
   17ETHO   H2165815  14.309   8.478  15.842
   17ETHO   H2365816  14.489   8.495  15.798
   18ETHO    O165817  14.436   8.371  15.962
   18ETHO    C165818  14.417   8.466  16.065
   18ETHO   H1165819  14.470   8.559  16.034
   18ETHO   H1365820  14.308   8.487  16.074
   18ETHO    C265821  14.459   8.422  16.207
   18ETHO   H2165822  14.487   8.503  16.277
   18ETHO   H2365823  14.555   8.367  16.199
   19ETHO    O165824  14.356   8.350  16.279
   19ETHO    C165825  14.348   8.220  16.232
   19ETHO   H1165826  14.452   8.181  16.239
   19ETHO   H1365827  14.319   8.220  16.125
   19ETHO    C265828  14.255   8.130  16.321
   19ETHO   H2165829  14.273   8.152  16.428
   19ETHO   H2365830  14.292   8.027  16.299
   20ETHO    O165831  14.115   8.150  16.294
   20ETHO    C165832  14.045   8.034  16.317
   20ETHO   H1165833  14.098   7.949  16.270
   20ETHO   H1365834  14.035   8.031  16.428
   20ETHO    C265835  13.897   8.030  16.264
   20ETHO   H2165836  13.849   8.130  16.262
   20ETHO   H2365837  13.834   7.965  16.329
   21ETHO    O165838  13.904   7.976  16.135
   21ETHO    C165839  13.788   7.972  16.060
   21ETHO   H1165840  13.745   8.074  16.052
   21ETHO   H1365841  13.707   7.917  16.113
   21ETHO    C265842  13.816   7.899  15.923
   21ETHO   H2165843  13.903   7.931  15.861
   21ETHO   H2365844  13.726   7.940  15.873
   22ETHO    O165845  13.815   7.756  15.948
   22ETHO    C165846  13.829   7.680  15.833
   22ETHO   H1165847  13.931   7.706  15.797
   22ETHO   H1365848  13.834   7.571  15.849
   22ETHO    C265849  13.717   7.710  15.725
   22ETHO   H2165850  13.703   7.819  15.705
   22ETHO   H2365851  13.747   7.650  15.637
   23ETHO    O165852  13.599   7.648  15.764
   23ETHO    C165853  13.496   7.682  15.674
   23ETHO   H1165854  13.535   7.671  15.571
   23ETHO   H1365855  13.461   7.787  15.683
   23ETHO    C265856  13.378   7.583  15.676
   23ETHO   H2165857  13.348   7.561  15.781
   23ETHO   H2365858  13.406   7.484  15.635
   24ETHO    O165859  13.263   7.630  15.603
   24ETHO    C165860  13.156   7.539  15.617
   24ETHO   H1165861  13.113   7.549  15.516
   24ETHO   H1365862  13.203   7.438  15.626
   24ETHO    C265863  13.049   7.565  15.726
   24ETHO   H2165864  12.971   7.486  15.723
   24ETHO   H2365865  13.012   7.668  15.712
   25ETHO    O165866  13.108   7.567  15.853
   25ETHO    C165867  13.009   7.579  15.960
   25ETHO   H1165868  12.926   7.505  15.958
   25ETHO   H1365869  12.953   7.671  15.935
   25ETHO    C265870  13.062   7.606  16.100
   25ETHO   H2165871  12.985   7.666  16.152
   25ETHO   H2365872  13.147   7.676  16.082
   26ETHO    O165873  13.092   7.488  16.170
   26ETHO    C165874  13.133   7.520  16.300
   26ETHO   H1165875  13.215   7.590  16.276
   26ETHO   H1365876  13.055   7.570  16.361
   26ETHO    C265877  13.195   7.407  16.378
   26ETHO   H2165878  13.114   7.344  16.420
   26ETHO   H2365879  13.251   7.449  16.464
   27ETHO    O165880  13.285   7.323  16.298
   27ETHO    C165881  13.380   7.260  16.379
   27ETHO   H1165882  13.323   7.181  16.432
   27ETHO   H1365883  13.432   7.339  16.438
   27ETHO    C265884  13.496   7.182  16.302
   27ETHO   H2165885  13.438   7.127  16.225
   27ETHO   H2365886  13.552   7.105  16.360
   28ETHO    O165887  13.585   7.278  16.239
   28ETHO    C165888  13.676   7.208  16.161
   28ETHO   H1165889  13.683   7.098  16.170
   28ETHO   H1365890  13.640   7.221  16.056
   28ETHO    C265891  13.821   7.257  16.164
   28ETHO   H2165892  13.820   7.367  16.182
   28ETHO   H2365893  13.889   7.229  16.081
   29ETHO    O165894  13.880   7.207  16.282
   29ETHO    C165895  14.016   7.180  16.277
   29ETHO   H1165896  14.068   7.268  16.232
   29ETHO   H1365897  14.038   7.093  16.211
   29ETHO    C265898  14.079   7.154  16.416
   29ETHO   H2165899  14.052   7.240  16.480
   29ETHO   H2365900  14.186   7.178  16.401
   30ETHO    O165901  14.056   7.025  16.473
   30ETHO    C165902  13.919   7.015  16.516
   30ETHO   H1165903  13.898   7.111  16.567
   30ETHO   H1365904  13.866   7.016  16.418
   30ETHO    C265905  13.884   6.886  16.589
   30ETHO   H2165906  13.790   6.895  16.647
   30ETHO   H2365907  13.971   6.865  16.655
   31ETHO    O165908  13.875   6.775  16.496
   31ETHO    C165909  13.866   6.657  16.565
   31ETHO   H1165910  13.955   6.626  16.624
   31ETHO   H1365911  13.793   6.685  16.643
   31ETHO    C265912  13.815   6.530  16.484
   31ETHO   H2165913  13.856   6.439  16.532
   31ETHO   H2365914  13.863   6.541  16.384
   32ETHO    O165915  13.673   6.522  16.469
   32ETHO    C165916  13.643   6.409  16.388
   32ETHO   H1165917  13.678   6.430  16.284
   32ETHO   H1365918  13.708   6.323  16.415
   32ETHO    C265919  13.490   6.390  16.383
   32ETHO   H2165920  13.460   6.308  16.313
   32ETHO   H2365921  13.439   6.481  16.343
   33ETHO    O165922  13.439   6.376  16.512
   33ETHO    C165923  13.319   6.303  16.509
   33ETHO   H1165924  13.249   6.334  16.429
   33ETHO   H1365925  13.334   6.194  16.491
   33ETHO    C265926  13.240   6.301  16.647
   33ETHO   H2165927  13.145   6.245  16.642
   33ETHO   H2365928  13.232   6.409  16.673
   34ETHO    O165929  13.316   6.236  16.750
   34ETHO    C165930  13.234   6.202  16.855
   34ETHO   H1165931  13.157   6.128  16.823
   34ETHO   H1365932  13.192   6.300  16.887
   34ETHO    C265933  13.309   6.148  16.978
   34ETHO   H2165934  13.247   6.162  17.070
   34ETHO   H2365935  13.395   6.213  17.004
   35ETHO    O165936  13.360   6.010  16.962
   35ETHO    C165937  13.484   6.005  16.895
   35ETHO   H1165938  13.499   5.897  16.874
   35ETHO   H1365939  13.487   6.050  16.794
   35ETHO    C265940  13.598   6.043  16.989
   35ETHO   H2165941  13.565   6.007  17.089
   35ETHO   H2365942  13.605   6.154  16.985
   36ETHO    O165943  13.720   5.985  16.944
   36ETHO    C165944  13.825   5.987  17.046
   36ETHO   H1165945  13.860   6.090  17.066
   36ETHO   H1365946  13.905   5.926  16.999
   36ETHO    C265947  13.797   5.925  17.179
   36ETHO   H2165948  13.730   5.980  17.247
   36ETHO   H2365949  13.898   5.919  17.225
   37ETHO    O165950  13.760   5.788  17.175
   37ETHO    C165951  13.710   5.743  17.299
   37ETHO   H1165952  13.763   5.800  17.378
   37ETHO   H1365953  13.603   5.773  17.308
   37ETHO    C265954  13.727   5.594  17.321
   37ETHO   H2165955  13.661   5.529  17.260
   37ETHO   H2365956  13.702   5.568  17.426
   38ETHO    O165957  13.864   5.567  17.304
   38ETHO    C165958  13.884   5.430  17.341
   38ETHO   H1165959  13.815   5.361  17.289
   38ETHO   H1365960  13.859   5.419  17.449
   38ETHO    C265961  14.032   5.386  17.321
   38ETHO   H2165962  14.035   5.293  17.382
   38ETHO   H2365963  14.094   5.463  17.370
   39ETHO    O165964  14.070   5.362  17.185
   39ETHO    C165965  14.213   5.351  17.164
   39ETHO   H1165966  14.261   5.448  17.189
   39ETHO   H1365967  14.250   5.278  17.239
   39ETHO    C265968  14.245   5.310  17.017
   39ETHO   H2165969  14.355   5.309  17.001
   39ETHO   H2365970  14.196   5.377  16.943
   40ETHO    O165971  14.194   5.183  16.990
   40ETHO    C165972  14.177   5.162  16.851
   40ETHO   H1165973  14.275   5.176  16.799
   40ETHO   H1365974  14.095   5.226  16.813
   40ETHO    C265975  14.140   5.016  16.821
   40ETHO   H2165976  14.213   4.949  16.871
   40ETHO   H2365977  14.153   4.992  16.714
   41ETHO    O165978  14.011   4.960  16.859
   41ETHO    C165979  13.899   4.996  16.780
   41ETHO   H1165980  13.812   4.996  16.849
   41ETHO   H1365981  13.917   5.101  16.750
   41ETHO    C265982  13.859   4.903  16.669
   41ETHO   H2165983  13.810   4.809  16.700
   41ETHO   H2365984  13.950   4.882  16.609
   42ETHO    O165985  13.777   4.963  16.569
   42ETHO    C165986  13.759   4.873  16.457
   42ETHO   H1165987  13.857   4.855  16.408
   42ETHO   H1365988  13.744   4.769  16.494
   42ETHO    C265989  13.647   4.916  16.368
   42ETHO   H2165990  13.559   4.927  16.435
   42ETHO   H2365991  13.633   4.838  16.290
   43ETHO    O165992  13.685   5.045  16.303
   43ETHO    C165993  13.575   5.095  16.230
   43ETHO   H1165994  13.527   5.010  16.177
   43ETHO   H1365995  13.501   5.144  16.297
   43ETHO    C265996  13.619   5.189  16.114
   43ETHO   H2165997  13.680   5.274  16.153
   43ETHO   H2365998  13.519   5.223  16.082
   44ETHO    O165999  13.699   5.130  16.010
   44ETHO    C166000  13.675   5.199  15.887
   44ETHO   H1166001  13.570   5.223  15.860
   44ETHO   H1366002  13.740   5.288  15.898
   44ETHO    C266003  13.739   5.126  15.771
   44ETHO   H2166004  13.840   5.087  15.792
   44ETHO   H2366005  13.749   5.207  15.695
   45ETHO    O166006  13.650   5.028  15.714
   45ETHO    C166007  13.692   4.899  15.747
   45ETHO   H1166008  13.601   4.835  15.736
   45ETHO   H1366009  13.730   4.888  15.851
   45ETHO    C266010  13.798   4.851  15.650
   45ETHO   H2166011  13.841   4.749  15.665
   45ETHO   H2366012  13.884   4.916  15.674
   46ETHO    O166013  13.757   4.859  15.509
   46ETHO    C166014  13.773   4.987  15.465
   46ETHO   H1166015  13.683   5.048  15.489
   46ETHO   H1366016  13.856   5.045  15.511
   46ETHO    C266017  13.790   4.979  15.316
   46ETHO   H2166018  13.760   5.078  15.274
   46ETHO   H2366019  13.718   4.910  15.267
   47ETHO    O166020  13.927   4.958  15.290
   47ETHO    C166021  13.959   4.952  15.149
   47ETHO   H1166022  14.069   4.959  15.141
   47ETHO   H1366023  13.922   5.047  15.104
   47ETHO    C266024  13.914   4.829  15.068
   47ETHO   H2166025  13.954   4.749  15.133
   47ETHO   H2366026  13.962   4.822  14.968
   48ETHO    O166027  13.772   4.815  15.059
   48ETHO    C166028  13.725   4.714  14.972
   48ETHO   H1166029  13.768   4.715  14.870
   48ETHO   H1366030  13.744   4.615  15.019
   48ETHO    C266031  13.571   4.726  14.941
   48ETHO   H2166032  13.556   4.802  14.861
   48ETHO   H2366033  13.524   4.632  14.903
   49ETHO    O166034  13.497   4.753  15.059
   49ETHO    C166035  13.384   4.827  15.028
   49ETHO   H1166036  13.313   4.764  14.971
   49ETHO   H1366037  13.407   4.927  14.985
   49ETHO    C266038  13.301   4.851  15.161
   49ETHO   H2166039  13.242   4.759  15.183
   49ETHO   H2366040  13.219   4.925  15.149
   50ETHO    O166041  13.389   4.895  15.266
   50ETHO    C166042  13.319   4.895  15.391
   50ETHO   H1166043  13.264   4.799  15.400
   50ETHO   H1366044  13.385   4.897  15.480
   50ETHO    C266045  13.225   5.019  15.417
   50ETHO   H2166046  13.172   4.991  15.510
   50ETHO   H2366047  13.150   5.015  15.336
   51ETHO    O166048  13.289   5.143  15.437
   51ETHO    C166049  13.351   5.161  15.567
   51ETHO   H1166050  13.451   5.114  15.566
   51ETHO   H1366051  13.286   5.114  15.644
   51ETHO    C266052  13.377   5.307  15.598
   51ETHO   H2166053  13.300   5.379  15.563
   51ETHO   H2366054  13.482   5.327  15.567
   52ETHO    O166055  13.384   5.327  15.739
   52ETHO    C166056  13.348   5.459  15.769
   52ETHO   H1166057  13.372   5.527  15.685
   52ETHO   H1366058  13.240   5.462  15.792
   52ETHO    C266059  13.398   5.486  15.910
   52ETHO   H2166060  13.366   5.408  15.983
   52ETHO   H2366061  13.345   5.575  15.950
   53ETHO    O166062  13.537   5.505  15.923
   53ETHO    C166063  13.558   5.545  16.054
   53ETHO   H1166064  13.481   5.622  16.077
   53ETHO   H1366065  13.536   5.466  16.130
   53ETHO    C266066  13.696   5.606  16.088
   53ETHO   H2166067  13.707   5.617  16.198
   53ETHO   H2366068  13.711   5.708  16.046
   54ETHO    O166069  13.800   5.514  16.059
   54ETHO    C166070  13.916   5.535  16.148
   54ETHO   H1166071  13.930   5.641  16.180
   54ETHO   H1366072  13.920   5.468  16.237
   54ETHO    C266073  14.041   5.510  16.068
   54ETHO   H2166074  14.029   5.418  16.007
   54ETHO   H2366075  14.124   5.473  16.132
   55ETHO    O166076  14.071   5.626  15.999
   55ETHO    C166077  14.020   5.619  15.870
   55ETHO   H1166078  14.076   5.539  15.819
   55ETHO   H1366079  13.914   5.584  15.869
   55ETHO    C266080  14.026   5.758  15.798
   55ETHO   H2166081  14.131   5.794  15.810
   55ETHO   H2366082  14.000   5.744  15.691
   56ETHO    O166083  13.934   5.858  15.848
   56ETHO    C166084  13.946   5.978  15.766
   56ETHO   H1166085  13.939   5.951  15.659
   56ETHO   H1366086  14.054   6.004  15.776
   56ETHO    C266087  13.841   6.084  15.790
   56ETHO   H2166088  13.876   6.182  15.752
   56ETHO   H2366089  13.813   6.099  15.896
   57ETHO    O166090  13.717   6.060  15.735
   57ETHO    C166091  13.708   6.126  15.607
   57ETHO   H1166092  13.708   6.235  15.629
   57ETHO   H1366093  13.796   6.092  15.547
   57ETHO    C266094  13.579   6.083  15.548
   57ETHO   H2166095  13.555   6.150  15.462
   57ETHO   H2366096  13.492   6.080  15.618
   58ETHO    O166097  13.567   5.960  15.478
   58ETHO    C166098  13.654   5.940  15.371
   58ETHO   H1166099  13.758   5.944  15.408
   58ETHO   H1366100  13.637   6.021  15.296
   58ETHO    C266101  13.617   5.812  15.295
   58ETHO   H2166102  13.659   5.726  15.353
   58ETHO   H2366103  13.672   5.822  15.199
   59ETHO    O166104  13.479   5.804  15.271
   59ETHO    C166105  13.442   5.676  15.215
   59ETHO   H1166106  13.342   5.682  15.167
   59ETHO   H1366107  13.520   5.652  15.140
   59ETHO    C266108  13.434   5.578  15.331
   59ETHO   H2166109  13.509   5.597  15.411
   59ETHO   H2366110  13.463   5.480  15.289
   60ETHO    O166111  13.312   5.577  15.405
   60ETHO    C166112  13.217   5.483  15.350
   60ETHO   H1166113  13.238   5.375  15.365
   60ETHO   H1366114  13.224   5.509  15.242
   60ETHO    C266115  13.073   5.522  15.394
   60ETHO   H2166116  13.071   5.485  15.499
   60ETHO   H2366117  12.994   5.461  15.345
   61ETHO    O166118  13.043   5.659  15.381
   61ETHO    C166119  12.955   5.704  15.484
   61ETHO   H1166120  12.870   5.633  15.483
   61ETHO   H1366121  13.009   5.696  15.581
   61ETHO    C266122  12.908   5.848  15.458
   61ETHO   H2166123  12.999   5.907  15.434
   61ETHO   H2366124  12.864   5.879  15.556
   62ETHO    O166125  12.812   5.854  15.354
   62ETHO    C166126  12.678   5.879  15.392
   62ETHO   H1166127  12.623   5.894  15.297
   62ETHO   H1366128  12.680   5.980  15.439
   62ETHO    C266129  12.604   5.774  15.483
   62ETHO   H2166130  12.630   5.675  15.440
   62ETHO   H2366131  12.496   5.794  15.498
   63ETHO    O166132  12.666   5.765  15.617
   63ETHO    C166133  12.592   5.672  15.698
   63ETHO   H1166134  12.608   5.710  15.801
   63ETHO   H1366135  12.484   5.678  15.670
   63ETHO    C266136  12.656   5.538  15.694
   63ETHO   H2166137  12.756   5.546  15.743
   63ETHO   H2366138  12.652   5.510  15.586
   64ETHO    O166139  12.575   5.453  15.771
   64ETHO    C166140  12.594   5.312  15.747
   64ETHO   H1166141  12.693   5.275  15.779
   64ETHO   H1366142  12.594   5.300  15.636
   64ETHO    C266143  12.491   5.218  15.815
   64ETHO   H2166144  12.479   5.256  15.919
   64ETHO   H2366145  12.543   5.120  15.820
   65ETHO    O166146  12.377   5.205  15.733
   65ETHO    C166147  12.268   5.298  15.767
   65ETHO   H1166148  12.306   5.395  15.806
   65ETHO   H1366149  12.201   5.319  15.681
   65ETHO    C266150  12.175   5.241  15.866
   65ETHO   H2166151  12.104   5.318  15.904
   65ETHO   H2366152  12.238   5.195  15.945
   66ETHO    O166153  12.104   5.142  15.796
   66ETHO    C166154  11.976   5.106  15.839
   66ETHO   H1166155  11.976   5.114  15.950
   66ETHO   H1366156  11.961   4.998  15.817
   66ETHO    C266157  11.860   5.207  15.793
   66ETHO   H2166158  11.892   5.307  15.829
   66ETHO   H2366159  11.767   5.177  15.845
   67ETHO    O166160  11.837   5.199  15.642
   67ETHO    C166161  11.714   5.260  15.604
   67ETHO   H1166162  11.728   5.277  15.495
   67ETHO   H1366163  11.643   5.179  15.632
   67ETHO    C266164  11.674   5.384  15.683
   67ETHO   H2166165  11.643   5.348  15.783
   67ETHO   H2366166  11.582   5.423  15.634
   68ETHO    O166167  11.769   5.487  15.673
   68ETHO    C166168  11.723   5.598  15.752
   68ETHO   H1166169  11.627   5.641  15.714
   68ETHO   H1366170  11.679   5.564  15.848
   68ETHO    C266171  11.834   5.703  15.772
   68ETHO   H2166172  11.805   5.786  15.839
   68ETHO   H2366173  11.863   5.748  15.674
   69ETHO    O166174  11.951   5.639  15.826
   69ETHO    C166175  12.061   5.727  15.814
   69ETHO   H1166176  12.086   5.757  15.710
   69ETHO   H1366177  12.032   5.825  15.857
   69ETHO    C266178  12.189   5.671  15.870
   69ETHO   H2166179  12.276   5.720  15.820
   69ETHO   H2366180  12.188   5.562  15.848
   70ETHO    O166181  12.211   5.675  16.013
   70ETHO    C166182  12.317   5.590  16.050
   70ETHO   H1166183  12.283   5.484  16.038
   70ETHO   H1366184  12.408   5.596  15.987
   70ETHO    C266185  12.353   5.599  16.199
   70ETHO   H2166186  12.415   5.508  16.215
   70ETHO   H2366187  12.262   5.597  16.263
   71ETHO    O166188  12.436   5.722  16.211
   71ETHO    C166189  12.464   5.753  16.344
   71ETHO   H1166190  12.503   5.655  16.380
   71ETHO   H1366191  12.376   5.787  16.401
   71ETHO    C266192  12.578   5.846  16.361
   71ETHO   H2166193  12.671   5.810  16.313
   71ETHO   H2366194  12.601   5.862  16.469
   72ETHO    O166195  12.538   5.968  16.307
   72ETHO    C166196  12.643   6.067  16.284
   72ETHO   H1166197  12.711   6.022  16.209
   72ETHO   H1366198  12.599   6.148  16.221
   72ETHO    C266199  12.698   6.125  16.412
   72ETHO   H2166200  12.616   6.173  16.469
   72ETHO   H2366201  12.764   6.212  16.388
   73ETHO    O166202  12.781   6.037  16.484
   73ETHO    C166203  12.828   6.089  16.614
   73ETHO   H1166204  12.734   6.123  16.664
   73ETHO   H1366205  12.881   6.186  16.602
   73ETHO    C266206  12.896   5.981  16.701
   73ETHO   H2166207  12.997   5.946  16.670
   73ETHO   H2366208  12.833   5.890  16.710
   74ETHO    O166209  12.906   6.041  16.828
   74ETHO    C166210  12.941   5.948  16.923
   74ETHO   H1166211  12.872   5.861  16.926
   74ETHO   H1366212  13.040   5.901  16.903
   74ETHO    C266213  12.946   6.022  17.063
   74ETHO   H2166214  12.970   6.129  17.047
   74ETHO   H2366215  13.018   5.967  17.127
   75ETHO    O166216  12.819   6.019  17.128
   75ETHO    C166217  12.827   6.057  17.267
   75ETHO   H1166218  12.880   6.154  17.278
   75ETHO   H1366219  12.883   5.975  17.316
   75ETHO    C266220  12.689   6.070  17.347
   75ETHO   H2166221  12.719   6.094  17.451
   75ETHO   H2366222  12.633   5.974  17.337
   76ETHO    O166223  12.610   6.174  17.298
   76ETHO    C166224  12.494   6.187  17.380
   76ETHO   H1166225  12.448   6.086  17.374
   76ETHO   H1366226  12.519   6.205  17.487
   76ETHO    C266227  12.403   6.294  17.334
   76ETHO   H2166228  12.458   6.389  17.315
   76ETHO   H2366229  12.330   6.311  17.416
   77ETHO    O166230  12.332   6.263  17.209
   77ETHO    C166231  12.191   6.231  17.232
   77ETHO   H1166232  12.136   6.225  17.136
   77ETHO   H1366233  12.137   6.312  17.285
   77ETHO    C266234  12.156   6.099  17.303
   77ETHO   H2166235  12.046   6.088  17.312
   77ETHO   H2366236  12.194   6.108  17.407
   78ETHO    O166237  12.203   5.986  17.237
   78ETHO    C166238  12.159   5.868  17.299
   78ETHO   H1166239  12.210   5.861  17.397
   78ETHO   H1366240  12.050   5.858  17.321
   78ETHO    C266241  12.219   5.744  17.222
   78ETHO   H2166242  12.222   5.656  17.290
   78ETHO   H2366243  12.325   5.767  17.196
   79ETHO    O166244  12.156   5.714  17.096
   79ETHO    C166245  12.233   5.625  17.019
   79ETHO   H1166246  12.334   5.665  16.996
   79ETHO   H1366247  12.234   5.523  17.063
   79ETHO    C266248  12.158   5.616  16.887
   79ETHO   H2166249  12.053   5.584  16.903
   79ETHO   H2366250  12.204   5.542  16.818
   80ETHO    O166251  12.170   5.744  16.815
   80ETHO    C166252  12.135   5.722  16.679
   80ETHO   H1166253  12.214   5.664  16.626
   80ETHO   H1366254  12.040   5.666  16.672
   80ETHO    C266255  12.120   5.865  16.621
   80ETHO   H2166256  12.038   5.920  16.671
   80ETHO   H2366257  12.089   5.842  16.517
   81ETHO    O166258  12.236   5.949  16.613
   81ETHO    C166259  12.208   6.069  16.543
   81ETHO   H1166260  12.192   6.024  16.443
   81ETHO   H1366261  12.112   6.107  16.583
   81ETHO    C266262  12.323   6.168  16.554
   81ETHO   H2166263  12.416   6.124  16.512
   81ETHO   H2366264  12.299   6.250  16.484
   82ETHO    O166265  12.346   6.214  16.686
   82ETHO    C166266  12.239   6.289  16.745
   82ETHO   H1166267  12.156   6.217  16.762
   82ETHO   H1366268  12.200   6.368  16.676
   82ETHO    C266269  12.274   6.358  16.882
   82ETHO   H2166270  12.341   6.290  16.939
   82ETHO   H2366271  12.178   6.380  16.933
   83ETHO    O166272  12.342   6.480  16.853
   83ETHO    C166273  12.383   6.528  16.976
   83ETHO   H1166274  12.295   6.539  17.044
   83ETHO   H1366275  12.453   6.453  17.020
   83ETHO    C266276  12.466   6.658  16.982
   83ETHO   H2166277  12.485   6.689  17.087
   83ETHO   H2366278  12.406   6.739  16.936
   84ETHO    O166279  12.590   6.654  16.904
   84ETHO    C166280  12.673   6.776  16.913
   84ETHO   H1166281  12.746   6.771  16.996
   84ETHO   H1366282  12.602   6.861  16.920
   84ETHO    C266283  12.765   6.769  16.790
   84ETHO   H2166284  12.834   6.682  16.793
   84ETHO   H2366285  12.822   6.864  16.802
   85ETHO    O166286  12.699   6.784  16.663
   85ETHO    C166287  12.799   6.782  16.559
   85ETHO   H1166288  12.866   6.694  16.562
   85ETHO   H1366289  12.759   6.771  16.456
   85ETHO    C266290  12.890   6.909  16.552
   85ETHO   H2166291  12.947   6.934  16.644
   85ETHO   H2366292  12.815   6.990  16.535
   86ETHO    O166293  12.968   6.898  16.437
   86ETHO    C166294  13.028   7.023  16.397
   86ETHO   H1166295  13.079   7.076  16.481
   86ETHO   H1366296  12.955   7.099  16.361
   86ETHO    C266297  13.133   6.983  16.289
   86ETHO   H2166298  13.195   6.898  16.324
   86ETHO   H2366299  13.205   7.066  16.273
   87ETHO    O166300  13.076   6.963  16.164
   87ETHO    C166301  13.179   6.923  16.071
   87ETHO   H1166302  13.248   7.010  16.066
   87ETHO   H1366303  13.236   6.832  16.103
   87ETHO    C266304  13.111   6.892  15.935
   87ETHO   H2166305  13.185   6.858  15.859
   87ETHO   H2366306  13.059   6.980  15.893
   88ETHO    O166307  13.010   6.797  15.930
   88ETHO    C166308  12.961   6.765  15.799
   88ETHO   H1166309  12.898   6.673  15.812
   88ETHO   H1366310  13.045   6.740  15.731
   88ETHO    C266311  12.870   6.870  15.728
   88ETHO   H2166312  12.849   6.819  15.632
   88ETHO   H2366313  12.932   6.958  15.702
   89ETHO    O166314  12.742   6.906  15.787
   89ETHO    C166315  12.640   6.817  15.767
   89ETHO   H1166316  12.612   6.795  15.662
   89ETHO   H1366317  12.675   6.722  15.811
   89ETHO    C266318  12.508   6.861  15.832
   89ETHO   H2166319  12.533   6.945  15.901
   89ETHO   H2366320  12.457   6.781  15.890
   90ETHO    O166321  12.419   6.904  15.733
   90ETHO    C166322  12.304   6.969  15.778
   90ETHO   H1166323  12.227   6.893  15.805
   90ETHO   H1366324  12.317   7.022  15.874
   90ETHO    C266325  12.245   7.063  15.668
   90ETHO   H2166326  12.326   7.121  15.619
   90ETHO   H2366327  12.180   7.137  15.718
   91ETHO    O166328  12.179   6.988  15.571
   91ETHO    C166329  12.173   7.063  15.457
   91ETHO   H1166330  12.158   7.171  15.478
   91ETHO   H1366331  12.272   7.049  15.408
   91ETHO    C266332  12.055   7.024  15.364
   91ETHO   H2166333  12.040   7.086  15.272
   91ETHO   H2366334  11.971   7.032  15.436
   92ETHO    O166335  12.082   6.892  15.324
   92ETHO    C166336  11.977   6.833  15.248
   92ETHO   H1166337  12.014   6.729  15.234
   92ETHO   H1366338  11.884   6.832  15.309
   92ETHO    C266339  11.939   6.879  15.106
   92ETHO   H2166340  11.931   6.990  15.111
   92ETHO   H2366341  11.846   6.838  15.062
   93ETHO    O166342  12.038   6.874  15.004
   93ETHO    C166343  11.994   6.879  14.877
   93ETHO   H1166344  11.959   6.977  14.839
   93ETHO   H1366345  11.914   6.807  14.852
   93ETHO    C266346  12.112   6.834  14.786
   93ETHO   H2166347  12.071   6.805  14.687
   93ETHO   H2366348  12.172   6.746  14.819
   94ETHO    O166349  12.193   6.949  14.765
   94ETHO    C166350  12.303   6.938  14.680
   94ETHO   H1166351  12.382   7.010  14.709
   94ETHO   H1366352  12.332   6.831  14.689
   94ETHO    C266353  12.266   6.969  14.531
   94ETHO   H2166354  12.172   6.914  14.509
   94ETHO   H2366355  12.347   6.934  14.464
   95ETHO    O166356  12.249   7.110  14.499
   95ETHO    C166357  12.377   7.169  14.466
   95ETHO   H1166358  12.435   7.111  14.391
   95ETHO   H1366359  12.429   7.163  14.564
   95ETHO    C266360  12.357   7.316  14.418
   95ETHO   H2166361  12.454   7.371  14.424
   95ETHO   H2366362  12.293   7.369  14.491
   96ETHO    O166363  12.309   7.316  14.287
   96ETHO    C166364  12.282   7.449  14.229
   96ETHO   H1166365  12.271   7.417  14.123
   96ETHO   H1366366  12.192   7.498  14.269
   96ETHO    C266367  12.398   7.544  14.229
   96ETHO   H2166368  12.433   7.578  14.329
   96ETHO   H2366369  12.352   7.637  14.189
   97ETHO    O166370  12.502   7.507  14.144
   97ETHO    C166371  12.615   7.599  14.149
   97ETHO   H1166372  12.696   7.536  14.110
   97ETHO   H1366373  12.645   7.621  14.254
   97ETHO    C266374  12.598   7.733  14.083
   97ETHO   H2166375  12.584   7.706  13.976
   97ETHO   H2366376  12.697   7.782  14.093
   98ETHO    O166377  12.509   7.830  14.143
   98ETHO    C166378  12.489   7.940  14.049
   98ETHO   H1166379  12.585   7.979  14.009
   98ETHO   H1366380  12.424   7.914  13.963
   98ETHO    C266381  12.414   8.059  14.121
   98ETHO   H2166382  12.402   8.145  14.053
   98ETHO   H2366383  12.480   8.087  14.206
   99ETHO    O166384  12.291   8.029  14.181
   99ETHO    C166385  12.180   8.024  14.092
   99ETHO   H1166386  12.168   7.923  14.047
   99ETHO   H1366387  12.198   8.080  13.997
   99ETHO    C266388  12.057   8.081  14.163
   99ETHO   H2166389  12.045   8.015  14.252
   99ETHO   H2366390  11.970   8.074  14.095
  100ETHO    O166391  12.081   8.214  14.201
  100ETHO    C166392  11.952   8.267  14.237
  100ETHO   H1166393  11.887   8.242  14.150
  100ETHO   H1366394  11.913   8.223  14.331
  100ETHO    C266395  11.934   8.421  14.252
  100ETHO   H2166396  12.010   8.459  14.323
  100ETHO   H2366397  11.830   8.438  14.289
  101PROX    O166398  11.937   8.499  14.130
  101PROX    C166399  12.068   8.532  14.088
  101PROX   H1166400  12.118   8.596  14.164
  101PROX   H1366401  12.114   8.432  14.072
  101PROX    C266402  12.060   8.622  13.965
  101PROX   H2166403  12.013   8.719  13.994
  101PROX    C366404  11.987   8.551  13.849
  101PROX   H3166405  11.989   8.613  13.756
  101PROX   H3266406  12.029   8.450  13.833
  101PROX   H3366407  11.880   8.540  13.877
  102PROX    O166408  12.198   8.647  13.923
  102PROX    C166409  12.281   8.526  13.921
  102PROX   H1166410  12.296   8.483  14.022
  102PROX   H1366411  12.249   8.445  13.851
  102PROX    C266412  12.415   8.572  13.860
  102PROX   H2166413  12.464   8.650  13.922
  102PROX    C366414  12.398   8.612  13.715
  102PROX   H3166415  12.399   8.526  13.645
  102PROX   H3266416  12.308   8.677  13.708
  102PROX   H3366417  12.491   8.665  13.686
  103PROX    O166418  12.496   8.463  13.851
  103PROX    C166419  12.561   8.426  13.973
  103PROX   H1166420  12.577   8.514  14.038
  103PROX   H1366421  12.502   8.345  14.021
  103PROX    C266422  12.708   8.383  13.940
  103PROX   H2166423  12.723   8.368  13.831
  103PROX    C366424  12.765   8.265  14.027
  103PROX   H3166425  12.875   8.248  14.023
  103PROX   H3266426  12.734   8.290  14.130
  103PROX   H3366427  12.717   8.168  14.004
  104PROX    O166428  12.805   8.480  13.977
  104PROX    C166429  12.811   8.588  13.886
  104PROX   H1166430  12.877   8.557  13.802
  104PROX   H1366431  12.708   8.615  13.853
  104PROX    C266432  12.873   8.715  13.950
  104PROX   H2166433  12.869   8.796  13.873
  104PROX    C366434  13.014   8.696  14.000
  104PROX   H3166435  13.073   8.684  13.906
  104PROX   H3266436  13.058   8.779  14.059
  104PROX   H3366437  13.024   8.598  14.052
  105PROX    O166438  12.787   8.738  14.052
  105PROX    C166439  12.797   8.877  14.100
  105PROX   H1166440  12.859   8.874  14.192
  105PROX   H1366441  12.837   8.949  14.025
  105PROX    C266442  12.660   8.927  14.135
  105PROX   H2166443  12.658   9.014  14.205
  105PROX    C366444  12.593   8.816  14.220
  105PROX   H3166445  12.493   8.838  14.262
  105PROX   H3266446  12.584   8.720  14.166
  105PROX   H3366447  12.671   8.803  14.299
  106PROX    O166448  12.589   8.966  14.017
  106PROX    C166449  12.448   8.979  14.030
  106PROX   H1166450  12.409   8.875  14.032
  106PROX   H1366451  12.423   9.032  14.124
  106PROX    C266452  12.398   9.052  13.906
  106PROX   H2166453  12.438   9.000  13.817
  106PROX    C366454  12.462   9.191  13.894
  106PROX   H3166455  12.417   9.268  13.960
  106PROX   H3266456  12.571   9.170  13.900
  106PROX   H3366457  12.429   9.230  13.795
  107PROX    O166458  12.261   9.073  13.909
  107PROX    C166459  12.188   8.980  13.830
  107PROX   H1166460  12.240   8.882  13.831
  107PROX   H1366461  12.086   8.973  13.873
  107PROX    C266462  12.176   9.024  13.685
  107PROX   H2166463  12.275   9.009  13.638
  107PROX    C366464  12.127   9.172  13.671
  107PROX   H3166465  12.127   9.213  13.567
  107PROX   H3266466  12.029   9.184  13.720
  107PROX   H3366467  12.201   9.226  13.734
  108PROX    O166468  12.075   8.942  13.626
  108PROX    C166469  12.127   8.839  13.547
  108PROX   H1166470  12.202   8.796  13.617
  108PROX   H1366471  12.052   8.761  13.520
  108PROX    C266472  12.174   8.888  13.409
  108PROX   H2166473  12.263   8.954  13.408
  108PROX    C366474  12.063   8.964  13.342
  108PROX   H3166475  11.967   8.909  13.342
  108PROX   H3266476  12.043   9.050  13.410
  108PROX   H3366477  12.086   9.006  13.241
  109PROX    O166478  12.186   8.775  13.319
  109PROX    C166479  12.307   8.700  13.346
  109PROX   H1166480  12.399   8.759  13.326
  109PROX   H1366481  12.304   8.688  13.456
  109PROX    C266482  12.308   8.556  13.296
  109PROX   H2166483  12.320   8.550  13.186
  109PROX    C366484  12.175   8.483  13.327
  109PROX   H3166485  12.095   8.535  13.270
  109PROX   H3266486  12.173   8.377  13.293
  109PROX   H3366487  12.156   8.499  13.435
  110PROX    O166488  12.417   8.491  13.353
  110PROX    C166489  12.546   8.513  13.290
  110PROX   H1166490  12.567   8.425  13.226
  110PROX   H1366491  12.548   8.606  13.228
  110PROX    C266492  12.654   8.527  13.398
  110PROX   H2166493  12.756   8.542  13.357
  110PROX    C366494  12.661   8.403  13.492
  110PROX   H3166495  12.564   8.398  13.545
  110PROX   H3266496  12.698   8.311  13.441
  110PROX   H3366497  12.735   8.428  13.571
  111PROX    O166498  12.621   8.639  13.489
  111PROX    C166499  12.677   8.761  13.449
  111PROX   H1166500  12.788   8.757  13.453
  111PROX   H1366501  12.635   8.800  13.354
  111PROX    C266502  12.656   8.878  13.546
  111PROX   H2166503  12.668   8.832  13.646
  111PROX    C366504  12.519   8.953  13.531
  111PROX   H3166505  12.440   8.882  13.564
  111PROX   H3266506  12.516   9.042  13.597
  111PROX   H3366507  12.499   8.979  13.425
  112PROX    O166508  12.760   8.980  13.530
  112PROX    C166509  12.779   9.055  13.652
  112PROX   H1166510  12.689   9.119  13.665
  112PROX   H1366511  12.781   8.996  13.746
  112PROX    C266512  12.894   9.159  13.643
  112PROX   H2166513  12.876   9.222  13.553
  112PROX    C366514  13.023   9.086  13.644
  112PROX   H3166515  13.110   9.155  13.653
  112PROX   H3266516  13.019   9.019  13.733
  112PROX   H3366517  13.043   9.029  13.551
  113PROX    O166518  12.895   9.242  13.761
  113PROX    C166519  12.793   9.340  13.748
  113PROX   H1166520  12.793   9.391  13.649
  113PROX   H1366521  12.694   9.294  13.764
  113PROX    C266522  12.820   9.446  13.858
  113PROX   H2166523  12.920   9.492  13.841
  113PROX    C366524  12.810   9.390  14.000
  113PROX   H3166525  12.894   9.322  14.021
  113PROX   H3266526  12.823   9.467  14.079
  113PROX   H3366527  12.720   9.325  14.014
  114PROX    O166528  12.737   9.565  13.835
  114PROX    C166529  12.598   9.542  13.853
  114PROX   H1166530  12.562   9.454  13.795
  114PROX   H1366531  12.580   9.540  13.962
  114PROX    C266532  12.517   9.658  13.802
  114PROX   H2166533  12.565   9.670  13.702
  114PROX    C366534  12.539   9.786  13.890
  114PROX   H3166535  12.648   9.799  13.903
  114PROX   H3266536  12.494   9.876  13.843
  114PROX   H3366537  12.498   9.776  13.993
  115PROX    O166538  12.381   9.624  13.791
  115PROX    C166539  12.302   9.719  13.728
  115PROX   H1166540  12.297   9.816  13.783
  115PROX   H1366541  12.339   9.747  13.627
  115PROX    C266542  12.153   9.675  13.710
  115PROX   H2166543  12.111   9.641  13.807
  115PROX    C366544  12.138   9.549  13.624
  115PROX   H3166545  12.156   9.561  13.515
  115PROX   H3266546  12.210   9.471  13.654
  115PROX   H3366547  12.037   9.503  13.628
  116PROX    O166548  12.085   9.791  13.664
  116PROX    C166549  11.948   9.776  13.680
  116PROX   H1166550  11.903   9.833  13.596
  116PROX   H1366551  11.917   9.669  13.671
  116PROX    C266552  11.886   9.847  13.804
  116PROX   H2166553  11.784   9.872  13.768
  116PROX    C366554  11.951   9.974  13.843
  116PROX   H3166555  11.975  10.038  13.755
  116PROX   H3266556  11.898  10.030  13.924
  116PROX   H3366557  12.046   9.954  13.897
  117PROX    O166558  11.873   9.748  13.906
  117PROX    C166559  11.760   9.656  13.888
  117PROX   H1166560  11.665   9.707  13.915
  117PROX   H1366561  11.753   9.620  13.783
  117PROX    C266562  11.764   9.521  13.963
  117PROX   H2166563  11.807   9.546  14.063
  117PROX    C366564  11.855   9.419  13.893
  117PROX   H3166565  11.949   9.461  13.850
  117PROX   H3266566  11.869   9.324  13.949
  117PROX   H3366567  11.801   9.386  13.801
  118PROX    O166568  11.632   9.485  13.973
  118PROX    C166569  11.607   9.383  14.076
  118PROX   H1166570  11.673   9.295  14.064
  118PROX   H1366571  11.625   9.431  14.174
  118PROX    C266572  11.465   9.331  14.049
  118PROX   H2166573  11.395   9.414  14.026
  118PROX    C366574  11.399   9.260  14.167
  118PROX   H3166575  11.292   9.237  14.147
  118PROX   H3266576  11.444   9.160  14.180
  118PROX   H3366577  11.404   9.321  14.260
  119PROX    O166578  11.461   9.231  13.944
  119PROX    C166579  11.456   9.278  13.805
  119PROX   H1166580  11.350   9.297  13.780
  119PROX   H1366581  11.499   9.379  13.787
  119PROX    C266582  11.529   9.176  13.708
  119PROX   H2166583  11.637   9.200  13.701
  119PROX    C366584  11.477   9.205  13.567
  119PROX   H3166585  11.469   9.313  13.540
  119PROX   H3266586  11.553   9.170  13.494
  119PROX   H3366587  11.380   9.157  13.540
  120PROX    O166588  11.509   9.037  13.749
  120PROX    C166589  11.567   8.934  13.672
  120PROX   H1166590  11.530   8.830  13.689
  120PROX   H1366591  11.544   8.947  13.564
  120PROX    C266592  11.723   8.921  13.691
  120PROX   H2166593  11.789   9.000  13.647
  120PROX    C366594  11.776   8.794  13.614
  120PROX   H3166595  11.728   8.703  13.653
  120PROX   H3266596  11.754   8.796  13.505
  120PROX   H3366597  11.887   8.791  13.625
  121PROX    O166598  11.764   8.892  13.823
  121PROX    C166599  11.779   8.998  13.916
  121PROX   H1166600  11.842   9.074  13.865
  121PROX   H1366601  11.675   9.033  13.932
  121PROX    C266602  11.837   8.963  14.048
  121PROX   H2166603  11.937   8.917  14.035
  121PROX    C366604  11.755   8.853  14.121
  121PROX   H3166605  11.813   8.829  14.213
  121PROX   H3266606  11.662   8.898  14.161
  121PROX   H3366607  11.752   8.758  14.063
  122PROX    O166608  11.852   9.079  14.133
  122PROX    C166609  11.981   9.138  14.138
  122PROX   H1166610  12.053   9.073  14.193
  122PROX   H1366611  12.018   9.151  14.035
  122PROX    C266612  11.969   9.270  14.218
  122PROX   H2166613  11.905   9.343  14.165
  122PROX    C366614  12.112   9.327  14.224
  122PROX   H3166615  12.177   9.263  14.286
  122PROX   H3266616  12.158   9.339  14.124
  122PROX   H3366617  12.126   9.420  14.284
  123PROX    O166618  11.933   9.244  14.349
  123PROX    C166619  11.796   9.276  14.372
  123PROX   H1166620  11.789   9.386  14.357
  123PROX   H1366621  11.732   9.236  14.291
  123PROX    C266622  11.755   9.227  14.520
  123PROX   H2166623  11.837   9.251  14.591
  123PROX    C366624  11.745   9.069  14.520
  123PROX   H3166625  11.679   9.047  14.433
  123PROX   H3266626  11.852   9.040  14.510
  123PROX   H3366627  11.697   9.020  14.607
  124PROX    O166628  11.632   9.284  14.560
  124PROX    C166629  11.662   9.412  14.603
  124PROX   H1166630  11.698   9.403  14.708
  124PROX   H1366631  11.728   9.473  14.538
  124PROX    C266632  11.536   9.497  14.607
  124PROX   H2166633  11.465   9.444  14.674
  124PROX    C366634  11.466   9.504  14.473
  124PROX   H3166635  11.523   9.532  14.382
  124PROX   H3266636  11.426   9.408  14.433
  124PROX   H3366637  11.376   9.567  14.490
  125PROX    O166638  11.574   9.627  14.659
  125PROX    C166639  11.497   9.659  14.771
  125PROX   H1166640  11.502   9.769  14.785
  125PROX   H1366641  11.392   9.627  14.757
  125PROX    C266642  11.570   9.602  14.893
  125PROX   H2166643  11.629   9.509  14.874
  125PROX    C366644  11.461   9.592  15.000
  125PROX   H3166645  11.417   9.694  15.010
  125PROX   H3266646  11.378   9.523  14.973
  125PROX   H3366647  11.500   9.557  15.098
  126PROX    O166648  11.675   9.692  14.940
  126PROX    C166649  11.773   9.623  15.022
  126PROX   H1166650  11.808   9.687  15.105
  126PROX   H1366651  11.739   9.535  15.081
  126PROX    C266652  11.895   9.591  14.943
  126PROX   H2166653  11.879   9.584  14.833
  126PROX    C366654  11.981   9.467  14.981
  126PROX   H3166655  12.068   9.470  14.913
  126PROX   H3266656  12.008   9.464  15.089
  126PROX   H3366657  11.910   9.387  14.951
  127PROX    O166658  11.989   9.688  14.970
  127PROX    C166659  11.953   9.813  14.901
  127PROX   H1166660  11.950   9.788  14.793
  127PROX   H1366661  11.858   9.851  14.943
  127PROX    C266662  12.067   9.912  14.930
  127PROX   H2166663  12.053   9.945  15.036
  127PROX    C366664  12.054  10.046  14.850
  127PROX   H3166665  12.036  10.010  14.747
  127PROX   H3266666  11.962  10.098  14.882
  127PROX   H3366667  12.134  10.122  14.863
  128PROX    O166668  12.194   9.849  14.912
  128PROX    C166669  12.295   9.927  14.984
  128PROX   H1166670  12.301  10.024  14.931
  128PROX   H1366671  12.262   9.944  15.088
  128PROX    C266672  12.430   9.849  14.971
  128PROX   H2166673  12.433   9.838  14.861
  128PROX    C366674  12.453   9.715  15.040
  128PROX   H3166675  12.551   9.675  15.008
  128PROX   H3266676  12.452   9.734  15.149
  128PROX   H3366677  12.368   9.646  15.019
  129PROX    O166678  12.535   9.942  15.008
  129PROX    C166679  12.653   9.925  14.925
  129PROX   H1166680  12.677   9.817  14.924
  129PROX   H1366681  12.632   9.963  14.823
  129PROX    C266682  12.773  10.013  14.985
  129PROX   H2166683  12.775  10.006  15.096
  129PROX    C366684  12.779  10.158  14.952
  129PROX   H3166685  12.854  10.222  15.003
  129PROX   H3266686  12.795  10.186  14.846
  129PROX   H3366687  12.680  10.198  14.983
  130PROX    O166688  12.902   9.973  14.940
  130PROX    C166689  12.952   9.853  15.003
  130PROX   H1166690  12.874   9.775  15.015
  130PROX   H1366691  13.028   9.814  14.932
  130PROX    C266692  13.012   9.876  15.151
  130PROX   H2166693  12.933   9.927  15.210
  130PROX    C366694  13.138   9.959  15.146
  130PROX   H3166695  13.224   9.896  15.117
  130PROX   H3266696  13.129  10.055  15.091
  130PROX   H3366697  13.151   9.985  15.253
  131PROX    O166698  13.038   9.741  15.201
  131PROX    C166699  12.957   9.698  15.315
  131PROX   H1166700  13.015   9.632  15.383
  131PROX   H1366701  12.937   9.791  15.373
  131PROX    C266702  12.829   9.636  15.270
  131PROX   H2166703  12.779   9.700  15.194
  131PROX    C366704  12.734   9.614  15.389
  131PROX   H3166705  12.720   9.712  15.438
  131PROX   H3266706  12.633   9.581  15.358
  131PROX   H3366707  12.778   9.533  15.451
  132PROX    O166708  12.858   9.503  15.212
  132PROX    C166709  12.742   9.454  15.150
  132PROX   H1166710  12.685   9.400  15.228
  132PROX   H1366711  12.674   9.537  15.122
  132PROX    C266712  12.766   9.360  15.023
  132PROX   H2166713  12.829   9.275  15.058
  132PROX    C366714  12.843   9.429  14.917
  132PROX   H3166715  12.792   9.526  14.898
  132PROX   H3266716  12.941   9.459  14.961
  132PROX   H3366717  12.854   9.380  14.818
  133PROX    O166718  12.645   9.307  14.980
  133PROX    C166719  12.658   9.176  14.928
  133PROX   H1166720  12.730   9.171  14.844
  133PROX   H1366721  12.697   9.108  15.007
  133PROX    C266722  12.526   9.124  14.870
  133PROX   H2166723  12.449   9.110  14.949
  133PROX    C366724  12.543   8.988  14.798
  133PROX   H3166725  12.590   8.912  14.863
  133PROX   H3266726  12.442   8.954  14.767
  133PROX   H3366727  12.590   8.995  14.698
  134PROX    O166728  12.484   9.220  14.771
  134PROX    C166729  12.390   9.319  14.818
  134PROX   H1166730  12.287   9.278  14.817
  134PROX   H1366731  12.406   9.358  14.921
  134PROX    C266732  12.395   9.435  14.721
  134PROX   H2166733  12.368   9.399  14.620
  134PROX    C366734  12.535   9.501  14.708
  134PROX   H3166735  12.555   9.578  14.786
  134PROX   H3266736  12.605   9.415  14.707
  134PROX   H3366737  12.552   9.547  14.608
  135PROX    O166738  12.299   9.532  14.762
  135PROX    C166739  12.253   9.620  14.658
  135PROX   H1166740  12.252   9.724  14.698
  135PROX   H1366741  12.322   9.612  14.571
  135PROX    C266742  12.112   9.586  14.603
  135PROX   H2166743  12.040   9.603  14.686
  135PROX    C366744  12.103   9.434  14.565
  135PROX   H3166745  12.126   9.383  14.661
  135PROX   H3266746  12.005   9.405  14.521
  135PROX   H3366747  12.171   9.405  14.482
  136PROX    O166748  12.084   9.674  14.499
  136PROX    C166749  11.953   9.658  14.445
  136PROX   H1166750  11.947   9.563  14.388
  136PROX   H1366751  11.874   9.661  14.523
  136PROX    C266752  11.926   9.773  14.343
  136PROX   H2166753  11.948   9.873  14.386
  136PROX    C366754  11.780   9.772  14.300
  136PROX   H3166755  11.751   9.856  14.234
  136PROX   H3266756  11.752   9.679  14.246
  136PROX   H3366757  11.713   9.777  14.388
  137PROX    O166758  12.001   9.753  14.227
  137PROX    C166759  12.112   9.841  14.231
  137PROX   H1166760  12.087   9.948  14.216
  137PROX   H1366761  12.168   9.836  14.327
  137PROX    C266762  12.204   9.810  14.107
  137PROX   H2166763  12.144   9.819  14.014
  137PROX    C366764  12.260   9.663  14.105
  137PROX   H3166765  12.299   9.636  14.206
  137PROX   H3266766  12.185   9.588  14.071
  137PROX   H3366767  12.339   9.648  14.029
  138PROX    O166768  12.306   9.908  14.098
  138PROX    C166769  12.265  10.017  14.016
  138PROX   H1166770  12.245   9.987  13.911
  138PROX   H1366771  12.172  10.060  14.058
  138PROX    C266772  12.387  10.121  14.009
  138PROX   H2166773  12.480  10.069  13.975
  138PROX    C366774  12.416  10.182  14.144
  138PROX   H3166775  12.446  10.108  14.221
  138PROX   H3266776  12.506  10.248  14.139
  138PROX   H3366777  12.335  10.240  14.194
  139PROX    O166778  12.356  10.229  13.919
  139PROX    C166779  12.357  10.196  13.779
  139PROX   H1166780  12.444  10.132  13.755
  139PROX   H1366781  12.267  10.136  13.753
  139PROX    C266782  12.354  10.315  13.685
  139PROX   H2166783  12.454  10.363  13.688
  139PROX    C366784  12.236  10.414  13.712
  139PROX   H3166785  12.139  10.370  13.681
  139PROX   H3266786  12.229  10.432  13.821
  139PROX   H3366787  12.255  10.519  13.680
  140PROX    O166788  12.329  10.263  13.552
  140PROX    C166789  12.372  10.341  13.441
  140PROX   H1166790  12.295  10.324  13.363
  140PROX   H1366791  12.385  10.448  13.466
  140PROX    C266792  12.501  10.274  13.387
  140PROX   H2166793  12.549  10.352  13.324
  140PROX    C366794  12.472  10.169  13.271
  140PROX   H3166795  12.397  10.202  13.196
  140PROX   H3266796  12.560  10.158  13.205
  140PROX   H3366797  12.440  10.071  13.313
  141PROX    O166798  12.578  10.218  13.495
  141PROX    C166799  12.688  10.298  13.530
  141PROX   H1166800  12.746  10.321  13.438
  141PROX   H1366801  12.651  10.394  13.571
  141PROX    C266802  12.780  10.229  13.629
  141PROX   H2166803  12.801  10.127  13.589
  141PROX    C366804  12.708  10.194  13.764
  141PROX   H3166805  12.636  10.114  13.739
  141PROX   H3266806  12.775  10.140  13.835
  141PROX   H3366807  12.665  10.279  13.821
  142PROX    O166808  12.897  10.307  13.658
  142PROX    C166809  12.997  10.298  13.563
  142PROX   H1166810  13.036  10.194  13.559
  142PROX   H1366811  12.962  10.329  13.462
  142PROX    C266812  13.120  10.382  13.604
  142PROX   H2166813  13.183  10.403  13.516
  142PROX    C366814  13.197  10.318  13.717
  142PROX   H3166815  13.289  10.379  13.727
  142PROX   H3266816  13.135  10.322  13.809
  142PROX   H3366817  13.237  10.218  13.687
  143PROX    O166818  13.082  10.512  13.647
  143PROX    C166819  13.039  10.597  13.542
  143PROX   H1166820  13.089  10.695  13.541
  143PROX   H1366821  13.047  10.556  13.439
  143PROX    C266822  12.892  10.637  13.562
  143PROX   H2166823  12.838  10.541  13.581
  143PROX    C366824  12.831  10.709  13.444
  143PROX   H3166825  12.847  10.819  13.446
  143PROX   H3266826  12.868  10.673  13.346
  143PROX   H3366827  12.726  10.680  13.422
  144PROX    O166828  12.878  10.720  13.679
  144PROX    C166829  12.752  10.702  13.742
  144PROX   H1166830  12.749  10.798  13.797
  144PROX   H1366831  12.675  10.692  13.662
  144PROX    C266832  12.737  10.588  13.840
  144PROX   H2166833  12.772  10.491  13.799
  144PROX    C366834  12.587  10.570  13.875
  144PROX   H3166835  12.515  10.555  13.792
  144PROX   H3266836  12.566  10.495  13.953
  144PROX   H3366837  12.547  10.669  13.906
  145PROX    O166838  12.814  10.617  13.957
  145PROX    C166839  12.824  10.506  14.043
  145PROX   H1166840  12.728  10.490  14.097
  145PROX   H1366841  12.841  10.416  13.979
  145PROX    C266842  12.935  10.515  14.146
  145PROX   H2166843  12.932  10.615  14.195
  145PROX    C366844  13.063  10.493  14.079
  145PROX   H3166845  13.142  10.504  14.156
  145PROX   H3266846  13.063  10.397  14.024
  145PROX   H3366847  13.078  10.568  13.998
  146PROX    O166848  12.923  10.417  14.249
  146PROX    C166849  12.987  10.454  14.372
  146PROX   H1166850  13.096  10.466  14.351
  146PROX   H1366851  12.956  10.552  14.413
  146PROX    C266852  12.966  10.348  14.480
  146PROX   H2166853  13.017  10.252  14.458
  146PROX    C366854  12.814  10.333  14.500
  146PROX   H3166855  12.767  10.299  14.406
  146PROX   H3266856  12.791  10.259  14.579
  146PROX   H3366857  12.774  10.431  14.536
  147PROX    O166858  13.014  10.391  14.608
  147PROX    C166859  13.157  10.375  14.626
  147PROX   H1166860  13.212  10.414  14.537
  147PROX   H1366861  13.189  10.456  14.696
  147PROX    C266862  13.202  10.240  14.689
  147PROX   H2166863  13.181  10.160  14.615
  147PROX    C366864  13.119  10.198  14.811
  147PROX   H3166865  13.010  10.211  14.793
  147PROX   H3266866  13.127  10.092  14.841
  147PROX   H3366867  13.141  10.265  14.898
  148PROX    O166868  13.337  10.264  14.715
  148PROX    C166869  13.426  10.189  14.631
  148PROX   H1166870  13.391  10.208  14.527
  148PROX   H1366871  13.526  10.236  14.642
  148PROX    C266872  13.445  10.049  14.667
  148PROX   H2166873  13.346   9.998  14.664
  148PROX    C366874  13.497  10.034  14.810
  148PROX   H3166875  13.444  10.097  14.885
  148PROX   H3266876  13.494   9.928  14.842
  148PROX   H3366877  13.606  10.056  14.814
  149PROX    O166878  13.528   9.978  14.571
  149PROX    C166879  13.474   9.982  14.441
  149PROX   H1166880  13.369  10.018  14.446
  149PROX   H1366881  13.539  10.042  14.374
  149PROX    C266882  13.464   9.839  14.378
  149PROX   H2166883  13.428   9.775  14.462
  149PROX    C366884  13.598   9.783  14.329
  149PROX   H3166885  13.597   9.695  14.261
  149PROX   H3266886  13.644   9.868  14.274
  149PROX   H3366887  13.660   9.760  14.418
  150PROX    O166888  13.377   9.848  14.275
  150PROX    C166889  13.305   9.728  14.239
  150PROX   H1166890  13.369   9.653  14.186
  150PROX   H1366891  13.277   9.674  14.332
  150PROX    C266892  13.172   9.755  14.162
  150PROX   H2166893  13.116   9.831  14.220
  150PROX    C366894  13.085   9.624  14.162
  150PROX   H3166895  13.095   9.576  14.261
  150PROX   H3266896  12.978   9.648  14.144
  150PROX   H3366897  13.122   9.553  14.085
  151PROX    O166898  13.195   9.801  14.030
  151PROX    C166899  13.235   9.941  14.038
  151PROX   H1166900  13.182   9.992  14.122
  151PROX   H1366901  13.337   9.957  14.079
  151PROX    C266902  13.212  10.023  13.910
  151PROX   H2166903  13.278  10.112  13.918
  151PROX    C366904  13.073  10.067  13.890
  151PROX   H3166905  13.035  10.125  13.977
  151PROX   H3266906  13.049  10.120  13.796
  151PROX   H3366907  13.021   9.969  13.883
  152PROX    O166908  13.251   9.959  13.792
  152PROX    C166909  13.394   9.932  13.785
  152PROX   H1166910  13.421   9.919  13.678
  152PROX   H1366911  13.441  10.023  13.827
  152PROX    C266912  13.451   9.808  13.856
  152PROX   H2166913  13.437   9.817  13.966
  152PROX    C366914  13.603   9.815  13.835
  152PROX   H3166915  13.655   9.730  13.885
  152PROX   H3266916  13.622   9.802  13.726
  152PROX   H3366917  13.654   9.903  13.879
  153PROX    O166918  13.389   9.688  13.809
  153PROX    C166919  13.458   9.569  13.844
  153PROX   H1166920  13.565   9.566  13.815
  153PROX   H1366921  13.453   9.564  13.955
  153PROX    C266922  13.387   9.440  13.790
  153PROX   H2166923  13.385   9.435  13.679
  153PROX    C366924  13.240   9.440  13.849
  153PROX   H3166925  13.166   9.369  13.807
  153PROX   H3266926  13.248   9.439  13.960
  153PROX   H3366927  13.202   9.543  13.830
  154PROX    O166928  13.443   9.323  13.844
  154PROX    C166929  13.388   9.196  13.801
  154PROX   H1166930  13.328   9.154  13.885
  154PROX   H1366931  13.315   9.198  13.717
  154PROX    C266932  13.498   9.098  13.762
  154PROX   H2166933  13.538   9.125  13.661
  154PROX    C366934  13.448   8.956  13.743
  154PROX   H3166935  13.367   8.967  13.668
  154PROX   H3266936  13.527   8.895  13.695
  154PROX   H3366937  13.415   8.904  13.836
  155PROX    O166938  13.595   9.097  13.859
  155PROX    C166939  13.701   9.188  13.826
  155PROX   H1166940  13.756   9.149  13.739
  155PROX   H1366941  13.663   9.289  13.798
  155PROX    C266942  13.798   9.211  13.945
  155PROX   H2166943  13.880   9.277  13.909
  155PROX    C366944  13.860   9.091  14.013
  155PROX   H3166945  13.779   9.024  14.049
  155PROX   H3266946  13.924   9.034  13.942
  155PROX   H3366947  13.923   9.112  14.102
  156PROX    O166948  13.743   9.300  14.041
  156PROX    C166949  13.631   9.245  14.113
  156PROX   H1166950  13.549   9.239  14.040
  156PROX   H1366951  13.647   9.146  14.162
  156PROX    C266952  13.586   9.345  14.221
  156PROX   H2166953  13.544   9.429  14.162
  156PROX    C366954  13.701   9.382  14.316
  156PROX   H3166955  13.723   9.297  14.384
  156PROX   H3266956  13.789   9.413  14.255
  156PROX   H3366957  13.670   9.467  14.381
  157PROX    O166958  13.483   9.292  14.307
  157PROX    C166959  13.356   9.298  14.243
  157PROX   H1166960  13.299   9.387  14.277
  157PROX   H1366961  13.366   9.317  14.134
  157PROX    C266962  13.269   9.166  14.260
  157PROX   H2166963  13.281   9.141  14.367
  157PROX    C366964  13.317   9.049  14.175
  157PROX   H3166965  13.270   8.954  14.209
  157PROX   H3266966  13.286   9.048  14.068
  157PROX   H3366967  13.426   9.037  14.191
  158PROX    O166968  13.128   9.194  14.238
  158PROX    C166969  13.033   9.103  14.293
  158PROX   H1166970  12.940   9.111  14.232
  158PROX   H1366971  13.066   9.000  14.267
  158PROX    C266972  13.007   9.118  14.445
  158PROX   H2166973  13.104   9.103  14.498
  158PROX    C366974  12.909   9.016  14.484
  158PROX   H3166975  12.947   8.912  14.493
  158PROX   H3266976  12.874   9.033  14.589
  158PROX   H3366977  12.815   9.026  14.426
  159PROX    O166978  12.946   9.244  14.468
  159PROX    C166979  13.037   9.354  14.455
  159PROX   H1166980  13.145   9.329  14.445
  159PROX   H1366981  13.021   9.419  14.366
  159PROX    C266982  13.017   9.448  14.577
  159PROX   H2166983  13.018   9.401  14.677
  159PROX    C366984  12.876   9.509  14.565
  159PROX   H3166985  12.804   9.428  14.542
  159PROX   H3266986  12.845   9.566  14.656
  159PROX   H3366987  12.875   9.579  14.478
  160PROX    O166988  13.116   9.547  14.570
  160PROX    C166989  13.142   9.592  14.700
  160PROX   H1166990  13.051   9.618  14.758
  160PROX   H1366991  13.187   9.505  14.754
  160PROX    C266992  13.239   9.715  14.720
  160PROX   H2166993  13.328   9.699  14.656
  160PROX    C366994  13.288   9.718  14.873
  160PROX   H3166995  13.369   9.643  14.883
  160PROX   H3266996  13.317   9.825  14.884
  160PROX   H3366997  13.210   9.697  14.948
  161PROX    O166998  13.166   9.838  14.699
  161PROX    C166999  13.125   9.863  14.561
  161PROX   H1167000  13.198   9.935  14.518
  161PROX   H1367001  13.145   9.768  14.507
  161PROX    C267002  12.986   9.924  14.540
  161PROX   H2167003  12.998  10.029  14.574
  161PROX    C367004  12.885   9.861  14.629
  161PROX   H3167005  12.800   9.926  14.657
  161PROX   H3267006  12.830   9.781  14.573
  161PROX   H3367007  12.933   9.826  14.723
  162PROX    O167008  12.958   9.918  14.403
  162PROX    C167009  12.849  10.001  14.363
  162PROX   H1167010  12.763   9.988  14.432
  162PROX   H1367011  12.887  10.102  14.387
  162PROX    C267012  12.810   9.979  14.216
  162PROX   H2167013  12.880   9.928  14.146
  162PROX    C367014  12.792  10.116  14.147
  162PROX   H3167015  12.757  10.102  14.043
  162PROX   H3267016  12.713  10.176  14.196
  162PROX   H3367017  12.879  10.184  14.146
  163PROX    O167018  12.691   9.901  14.216
  163PROX    C167019  12.710   9.763  14.242
  163PROX   H1167020  12.732   9.714  14.145
  163PROX   H1367021  12.790   9.739  14.315
  163PROX    C267022  12.581   9.702  14.306
  163PROX   H2167023  12.503   9.716  14.228
  163PROX    C367024  12.535   9.776  14.430
  163PROX   H3167025  12.620   9.772  14.500
  163PROX   H3267026  12.531   9.883  14.398
  163PROX   H3367027  12.431   9.754  14.464
  164PROX    O167028  12.605   9.563  14.342
  164PROX    C167029  12.494   9.474  14.330
  164PROX   H1167030  12.414   9.520  14.392
  164PROX   H1367031  12.463   9.466  14.223
  164PROX    C267032  12.540   9.335  14.371
  164PROX   H2167033  12.583   9.347  14.473
  164PROX    C367034  12.653   9.290  14.285
  164PROX   H3167035  12.700   9.200  14.330
  164PROX   H3267036  12.620   9.272  14.180
  164PROX   H3367037  12.731   9.369  14.276
  165PROX    O167038  12.429   9.243  14.368
  165PROX    C167039  12.459   9.120  14.434
  165PROX   H1167040  12.547   9.060  14.402
  165PROX   H1367041  12.473   9.144  14.541
  165PROX    C267042  12.333   9.030  14.429
  165PROX   H2167043  12.292   9.032  14.326
  165PROX    C367044  12.225   9.074  14.528
  165PROX   H3167045  12.138   9.006  14.513
  165PROX   H3267046  12.263   9.057  14.631
  165PROX   H3367047  12.199   9.180  14.512
  166ETHO    O167048  12.365   8.895  14.456
  166ETHO    C167049  12.259   8.795  14.449
  166ETHO   H1167050  12.203   8.788  14.354
  166ETHO   H1367051  12.182   8.808  14.528
  166ETHO    C267052  12.324   8.664  14.463
  166ETHO   H2167053  12.426   8.660  14.418
  166ETHO   H2367054  12.260   8.583  14.421
  167ETHO    O167055  12.348   8.634  14.600
  167ETHO    C167056  12.425   8.514  14.617
  167ETHO   H1167057  12.384   8.461  14.705
  167ETHO   H1367058  12.420   8.439  14.535
  167ETHO    C267059  12.573   8.548  14.662
  167ETHO   H2167060  12.620   8.459  14.710
  167ETHO   H2367061  12.570   8.639  14.725
  168ETHO    O167062  12.659   8.570  14.547
  168ETHO    C167063  12.785   8.637  14.575
  168ETHO   H1167064  12.762   8.720  14.646
  168ETHO   H1367065  12.817   8.683  14.479
  168ETHO    C267066  12.897   8.552  14.631
  168ETHO   H2167067  12.986   8.617  14.617
  168ETHO   H2367068  12.914   8.458  14.574
  169ETHO    O167069  12.888   8.525  14.767
  169ETHO    C167070  12.927   8.632  14.850
  169ETHO   H1167071  12.880   8.728  14.820
  169ETHO   H1367072  12.897   8.595  14.950
  169ETHO    C267073  13.084   8.645  14.863
  169ETHO   H2167074  13.133   8.545  14.857
  169ETHO   H2367075  13.115   8.689  14.960
  170ETHO    O167076  13.136   8.735  14.761
  170ETHO    C167077  13.268   8.784  14.774
  170ETHO   H1167078  13.344   8.705  14.793
  170ETHO   H1367079  13.267   8.855  14.859
  170ETHO    C267080  13.322   8.864  14.650
  170ETHO   H2167081  13.418   8.905  14.689
  170ETHO   H2367082  13.246   8.943  14.634
  171ETHO    O167083  13.340   8.789  14.534
  171ETHO    C167084  13.227   8.792  14.452
  171ETHO   H1167085  13.140   8.771  14.518
  171ETHO   H1367086  13.206   8.895  14.417
  171ETHO    C267087  13.224   8.693  14.336
  171ETHO   H2167088  13.330   8.662  14.328
  171ETHO   H2367089  13.198   8.753  14.246
  172ETHO    O167090  13.161   8.564  14.344
  172ETHO    C167091  13.188   8.470  14.241
  172ETHO   H1167092  13.276   8.416  14.281
  172ETHO   H1367093  13.203   8.507  14.137
  172ETHO    C267094  13.074   8.375  14.231
  172ETHO   H2167095  13.080   8.323  14.133
  172ETHO   H2367096  12.981   8.435  14.239
  173ETHO    O167097  13.086   8.267  14.327
  173ETHO    C167098  12.985   8.172  14.325
  173ETHO   H1167099  12.887   8.224  14.318
  173ETHO   H1367100  13.001   8.099  14.243
  173ETHO    C267101  12.977   8.094  14.461
  173ETHO   H2167102  13.079   8.069  14.496
  173ETHO   H2367103  12.943   8.171  14.533
  174ETHO    O167104  12.890   7.975  14.461
  174ETHO    C167105  12.913   7.899  14.581
  174ETHO   H1167106  12.908   7.792  14.552
  174ETHO   H1367107  13.017   7.908  14.619
  174ETHO    C267108  12.811   7.928  14.687
  174ETHO   H2167109  12.710   7.931  14.642
  174ETHO   H2367110  12.839   8.027  14.727
  175ETHO    O167111  12.820   7.827  14.786
  175ETHO    C167112  12.719   7.852  14.880
  175ETHO   H1167113  12.737   7.952  14.924
  175ETHO   H1367114  12.620   7.856  14.831
  175ETHO    C267115  12.718   7.745  14.987
  175ETHO   H2167116  12.774   7.654  14.956
  175ETHO   H2367117  12.615   7.720  15.020
  176ETHO    O167118  12.776   7.796  15.105
  176ETHO    C167119  12.812   7.690  15.199
  176ETHO   H1167120  12.799   7.726  15.303
  176ETHO   H1367121  12.731   7.614  15.189
  176ETHO    C267122  12.955   7.645  15.172
  176ETHO   H2167123  12.974   7.606  15.070
  176ETHO   H2367124  12.977   7.562  15.242
  177ETHO    O167125  13.055   7.741  15.187
  177ETHO    C167126  13.112   7.737  15.314
  177ETHO   H1167127  13.180   7.650  15.328
  177ETHO   H1367128  13.033   7.724  15.392
  177ETHO    C267129  13.188   7.861  15.341
  177ETHO   H2167130  13.250   7.890  15.253
  177ETHO   H2367131  13.268   7.844  15.417
  178ETHO    O167132  13.104   7.964  15.379
  178ETHO    C167133  13.167   8.081  15.419
  178ETHO   H1167134  13.239   8.102  15.337
  178ETHO   H1367135  13.098   8.166  15.409
  178ETHO    C267136  13.251   8.075  15.552
  178ETHO   H2167137  13.320   8.162  15.550
  178ETHO   H2367138  13.318   7.988  15.569
  179ETHO    O167139  13.174   8.084  15.668
  179ETHO    C167140  13.120   7.952  15.692
  179ETHO   H1167141  13.196   7.872  15.704
  179ETHO   H1367142  13.050   7.927  15.609
  179ETHO    C267143  13.029   7.962  15.811
  179ETHO   H2167144  12.953   7.883  15.796
  179ETHO   H2367145  12.962   8.048  15.794
  180ETHO    O167146  13.097   7.969  15.939
  180ETHO    C167147  13.015   8.011  16.047
  180ETHO   H1167148  12.995   8.120  16.042
  180ETHO   H1367149  12.915   7.963  16.044
  180ETHO    C267150  13.085   7.979  16.179
  180ETHO   H2167151  13.129   7.880  16.155
  180ETHO   H2367152  13.013   7.973  16.264
  181ETHO    O167153  13.182   8.071  16.228
  181ETHO    C167154  13.234   8.035  16.357
  181ETHO   H1167155  13.313   7.957  16.343
  181ETHO   H1367156  13.158   7.987  16.423
  181ETHO    C267157  13.304   8.154  16.424
  181ETHO   H2167158  13.385   8.193  16.359
  181ETHO   H2367159  13.353   8.105  16.511
  182ETHO    O167160  13.221   8.265  16.459
  182ETHO    C167161  13.122   8.243  16.565
  182ETHO   H1167162  13.069   8.340  16.578
  182ETHO   H1367163  13.051   8.167  16.526
  182ETHO    C267164  13.195   8.198  16.701
  182ETHO   H2167165  13.133   8.243  16.781
  182ETHO   H2367166  13.294   8.247  16.709
  183ETHO    O167167  13.197   8.053  16.709
  183ETHO    C167168  13.296   8.010  16.808
  183ETHO   H1167169  13.260   8.050  16.905
  183ETHO   H1367170  13.383   8.074  16.781
  183ETHO    C267171  13.330   7.865  16.809
  183ETHO   H2167172  13.231   7.816  16.806
  183ETHO   H2367173  13.378   7.837  16.905
  184ETHO    O167174  13.418   7.828  16.699
  184ETHO    C167175  13.499   7.709  16.722
  184ETHO   H1167176  13.571   7.729  16.804
  184ETHO   H1367177  13.438   7.620  16.751
  184ETHO    C267178  13.578   7.680  16.596
  184ETHO   H2167179  13.606   7.573  16.609
  184ETHO   H2367180  13.665   7.747  16.577
  185ETHO    O167181  13.501   7.663  16.474
  185ETHO    C167182  13.584   7.624  16.370
  185ETHO   H1167183  13.681   7.678  16.369
  185ETHO   H1367184  13.622   7.519  16.376
  185ETHO    C267185  13.524   7.632  16.226
  185ETHO   H2167186  13.423   7.587  16.226
  185ETHO   H2367187  13.603   7.583  16.164
  186ETHO    O167188  13.505   7.769  16.175
  186ETHO    C167189  13.469   7.770  16.042
  186ETHO   H1167190  13.555   7.741  15.979
  186ETHO   H1367191  13.384   7.700  16.031
  186ETHO    C267192  13.411   7.908  15.999
  186ETHO   H2167193  13.324   7.930  16.063
  186ETHO   H2367194  13.379   7.909  15.893
  187ETHO    O167195  13.499   8.021  16.008
  187ETHO    C167196  13.432   8.142  15.974
  187ETHO   H1167197  13.354   8.134  15.895
  187ETHO   H1367198  13.359   8.168  16.054
  187ETHO    C267199  13.528   8.253  15.936
  187ETHO   H2167200  13.593   8.288  16.020
  187ETHO   H2367201  13.471   8.341  15.898
  188ETHO    O167202  13.618   8.210  15.832
  188ETHO    C167203  13.707   8.316  15.811
  188ETHO   H1167204  13.665   8.419  15.811
  188ETHO   H1367205  13.724   8.291  15.704
  188ETHO    C267206  13.845   8.303  15.875
  188ETHO   H2167207  13.924   8.353  15.813
  188ETHO   H2367208  13.861   8.193  15.878
  189ETHO    O167209  13.848   8.366  16.005
  189ETHO    C167210  13.976   8.356  16.068
  189ETHO   H1167211  13.967   8.272  16.140
  189ETHO   H1367212  14.053   8.328  15.994
  189ETHO    C267213  14.020   8.486  16.137
  189ETHO   H2167214  14.038   8.569  16.066
  189ETHO   H2367215  14.119   8.458  16.177
  190ETHO    O167216  13.923   8.529  16.243
  190ETHO    C167217  13.986   8.621  16.334
  190ETHO   H1167218  14.084   8.586  16.374
  190ETHO   H1367219  13.916   8.616  16.420
  190ETHO    C267220  13.985   8.766  16.285
  190ETHO   H2167221  14.008   8.838  16.367
  190ETHO   H2367222  13.885   8.795  16.248
  191ETHO    O167223  14.080   8.784  16.184
  191ETHO    C167224  14.107   8.921  16.149
  191ETHO   H1167225  14.021   8.989  16.130
  191ETHO   H1367226  14.161   8.959  16.239
  191ETHO    C267227  14.185   8.930  16.020
  191ETHO   H2167228  14.272   8.861  16.023
  191ETHO   H2367229  14.215   9.037  16.010
  192ETHO    O167230  14.108   8.893  15.908
  192ETHO    C167231  14.192   8.895  15.793
  192ETHO   H1167232  14.126   8.870  15.707
  192ETHO   H1367233  14.275   8.823  15.803
  192ETHO    C267234  14.256   9.029  15.759
  192ETHO   H2167235  14.196   9.112  15.803
  192ETHO   H2367236  14.250   9.034  15.648
  193ETHO    O167237  14.389   9.039  15.792
  193ETHO    C167238  14.429   9.177  15.788
  193ETHO   H1167239  14.391   9.236  15.702
  193ETHO   H1367240  14.388   9.224  15.880
  193ETHO    C267241  14.579   9.183  15.794
  193ETHO   H2167242  14.618   9.123  15.879
  193ETHO   H2367243  14.616   9.287  15.810
  194ETHO    O167244  14.637   9.148  15.669
  194ETHO    C167245  14.780   9.133  15.681
  194ETHO   H1167246  14.825   9.206  15.751
  194ETHO   H1367247  14.819   9.155  15.579
  194ETHO    C267248  14.842   8.998  15.718
  194ETHO   H2167249  14.951   9.019  15.715
  194ETHO   H2367250  14.799   8.932  15.640
  195ETHO    O167251  14.802   8.956  15.850
  195ETHO    C167252  14.909   8.885  15.916
  195ETHO   H1167253  14.947   8.806  15.847
  195ETHO   H1367254  14.991   8.959  15.928
  195ETHO    C267255  14.865   8.830  16.053
  195ETHO   H2167256  14.840   8.917  16.116
  195ETHO   H2367257  14.956   8.794  16.106
  196ETHO    O167258  14.757   8.740  16.054
  196ETHO    C167259  14.796   8.608  16.033
  196ETHO   H1167260  14.708   8.543  16.015
  196ETHO   H1367261  14.853   8.601  15.938
  196ETHO    C267262  14.878   8.552  16.151
  196ETHO   H2167263  14.975   8.603  16.169
  196ETHO   H2367264  14.893   8.444  16.130
  197ETHO    O167265  14.828   8.564  16.280
  197ETHO    C167266  14.859   8.449  16.369
  197ETHO   H1167267  14.845   8.348  16.325
  197ETHO   H1367268  14.967   8.462  16.388
  197ETHO    C267269  14.784   8.458  16.507
  197ETHO   H2167270  14.818   8.556  16.546
  197ETHO   H2367271  14.830   8.394  16.586
  198ETHO    O167272  14.645   8.449  16.501
  198ETHO    C167273  14.574   8.483  16.623
  198ETHO   H1167274  14.645   8.527  16.697
  198ETHO   H1367275  14.511   8.565  16.585
  198ETHO    C267276  14.482   8.378  16.693
  198ETHO   H2167277  14.424   8.333  16.610
  198ETHO   H2367278  14.417   8.438  16.760
  199ETHO    O167279  14.559   8.275  16.766
  199ETHO    C167280  14.476   8.163  16.779
  199ETHO   H1167281  14.372   8.192  16.802
  199ETHO   H1367282  14.506   8.113  16.873
  199ETHO    C267283  14.474   8.054  16.664
  199ETHO   H2167284  14.434   8.105  16.574
  199ETHO   H2367285  14.406   7.971  16.695
  200ETHO    O167286  14.600   7.990  16.638
  200ETHO    C167287  14.604   7.937  16.502
  200ETHO   H1167288  14.530   7.855  16.497
  200ETHO   H1367289  14.568   8.011  16.428
  200ETHO    C267290  14.743   7.890  16.457
  200ETHO   H2167291  14.808   7.840  16.532
  200ETHO   H2367292  14.800   7.974  16.412
  201ETHO    O167293  14.722   7.803  16.343
  201ETHO    C167294  14.840   7.737  16.302
  201ETHO   H1167295  14.873   7.671  16.385
  201ETHO   H1367296  14.917   7.814  16.281
  201ETHO    C267297  14.826   7.652  16.174
  201ETHO   H2167298  14.742   7.581  16.168
  201ETHO   H2367299  14.917   7.589  16.173
  202ETHO    O167300  14.812   7.724  16.049
  202ETHO    C167301  14.750   7.655  15.939
  202ETHO   H1167302  14.797   7.554  15.942
  202ETHO   H1367303  14.643   7.631  15.960
  202ETHO    C267304  14.758   7.729  15.809
  202ETHO   H2167305  14.717   7.661  15.731
  202ETHO   H2367306  14.865   7.752  15.788
  203ETHO    O167307  14.670   7.840  15.805
  203ETHO    C167308  14.684   7.921  15.691
  203ETHO   H1167309  14.791   7.949  15.686
  203ETHO   H1367310  14.640   8.020  15.716
  203ETHO    C267311  14.632   7.864  15.560
  203ETHO   H2167312  14.661   7.764  15.520
  203ETHO   H2367313  14.675   7.934  15.484
  204ETHO    O167314  14.489   7.878  15.565
  204ETHO    C167315  14.421   7.815  15.452
  204ETHO   H1167316  14.474   7.816  15.354
  204ETHO   H1367317  14.412   7.708  15.478
  204ETHO    C267318  14.285   7.877  15.417
  204ETHO   H2167319  14.229   7.905  15.510
  204ETHO   H2367320  14.223   7.803  15.363
  205ETHO    O167321  14.286   8.000  15.347
  205ETHO    C167322  14.367   8.110  15.403
  205ETHO   H1167323  14.477   8.101  15.393
  205ETHO   H1367324  14.348   8.111  15.512
  205ETHO    C267325  14.313   8.245  15.348
  205ETHO   H2167326  14.333   8.254  15.239
  205ETHO   H2367327  14.370   8.331  15.389
  206ETHO    O167328  14.175   8.276  15.378
  206ETHO    C167329  14.145   8.408  15.323
  206ETHO   H1167330  14.202   8.437  15.232
  206ETHO   H1367331  14.051   8.386  15.268
  206ETHO    C267332  14.147   8.519  15.419
  206ETHO   H2167333  14.082   8.596  15.373
  206ETHO   H2367334  14.097   8.493  15.515
  207ETHO    O167335  14.281   8.571  15.435
  207ETHO    C167336  14.291   8.660  15.552
  207ETHO   H1167337  14.280   8.606  15.649
  207ETHO   H1367338  14.202   8.726  15.541
  207ETHO    C267339  14.418   8.741  15.552
  207ETHO   H2167340  14.381   8.842  15.580
  207ETHO   H2367341  14.453   8.746  15.446
  208ETHO    O167342  14.503   8.665  15.644
  208ETHO    C167343  14.618   8.741  15.666
  208ETHO   H1167344  14.614   8.837  15.609
  208ETHO   H1367345  14.631   8.761  15.774
  208ETHO    C267346  14.756   8.673  15.630
  208ETHO   H2167347  14.740   8.564  15.614
  208ETHO   H2367348  14.824   8.683  15.717
  209ETHO    O167349  14.826   8.716  15.513
  209ETHO    C167350  14.962   8.692  15.525
  209ETHO   H1167351  14.993   8.589  15.555
  209ETHO   H1367352  15.002   8.767  15.596
  209ETHO    C267353  15.018   8.717  15.388
  209ETHO   H2167354  15.128   8.729  15.394
  209ETHO   H2367355  14.970   8.812  15.356
  210ETHO    O167356  14.984   8.614  15.295
  210ETHO    C167357  15.026   8.644  15.168
  210ETHO   H1167358  15.035   8.750  15.136
  210ETHO   H1367359  15.126   8.598  15.152
  210ETHO    C267360  14.942   8.574  15.071
  210ETHO   H2167361  14.915   8.471  15.102
  210ETHO   H2367362  15.005   8.564  14.980
  211ETHO    O167363  14.819   8.638  15.027
  211ETHO    C167364  14.762   8.565  14.918
  211ETHO   H1167365  14.803   8.595  14.820
  211ETHO   H1367366  14.780   8.457  14.938
  211ETHO    C267367  14.611   8.594  14.907
  211ETHO   H2167368  14.587   8.574  14.800
  211ETHO   H2367369  14.587   8.702  14.913
  212ETHO    O167370  14.534   8.518  14.999
  212ETHO    C167371  14.391   8.527  14.983
  212ETHO   H1167372  14.357   8.541  15.088
  212ETHO   H1367373  14.377   8.626  14.934
  212ETHO    C267374  14.335   8.410  14.907
  212ETHO   H2167375  14.419   8.404  14.835
  212ETHO   H2367376  14.237   8.432  14.860
  213ETHO    O167377  14.308   8.296  14.981
  213ETHO    C167378  14.169   8.258  14.975
  213ETHO   H1167379  14.106   8.343  15.009
  213ETHO   H1367380  14.132   8.254  14.870
  213ETHO    C267381  14.134   8.128  15.049
  213ETHO   H2167382  14.158   8.150  15.155
  213ETHO   H2367383  14.203   8.046  15.019
  214ETHO    O167384  13.997   8.093  15.032
  214ETHO    C167385  13.945   8.041  15.155
  214ETHO   H1167386  13.988   8.083  15.248
  214ETHO   H1367387  13.959   7.931  15.154
  214ETHO    C267388  13.784   8.059  15.150
  214ETHO   H2167389  13.759   8.164  15.123
  214ETHO   H2367390  13.740   8.038  15.250
  215ETHO    O167391  13.717   7.971  15.056
  215ETHO    C167392  13.588   8.019  15.013
  215ETHO   H1167393  13.524   8.026  15.104
  215ETHO   H1367394  13.605   8.119  14.966
  215ETHO    C267395  13.524   7.915  14.919
  215ETHO   H2167396  13.420   7.953  14.913
  215ETHO   H2367397  13.532   7.810  14.957
  216ETHO    O167398  13.586   7.910  14.791
  216ETHO    C167399  13.522   8.004  14.705
  216ETHO   H1167400  13.588   8.034  14.621
  216ETHO   H1367401  13.495   8.096  14.762
  216ETHO    C267402  13.399   7.959  14.622
  216ETHO   H2167403  13.361   8.055  14.581
  216ETHO   H2367404  13.336   7.907  14.698
  217ETHO    O167405  13.433   7.858  14.525
  217ETHO    C167406  13.316   7.796  14.471
  217ETHO   H1167407  13.345   7.691  14.452
  217ETHO   H1367408  13.237   7.788  14.548
  217ETHO    C267409  13.259   7.880  14.351
  217ETHO   H2167410  13.246   7.984  14.389
  217ETHO   H2367411  13.157   7.853  14.317
  218ETHO    O167412  13.348   7.890  14.237
  218ETHO    C167413  13.313   7.997  14.146
  218ETHO   H1167414  13.326   8.096  14.194
  218ETHO   H1367415  13.209   7.978  14.113
  218ETHO    C267416  13.390   8.001  14.007
  218ETHO   H2167417  13.332   8.063  13.934
  218ETHO   H2367418  13.388   7.899  13.964
  219ETHO    O167419  13.520   8.056  14.025
  219ETHO    C167420  13.531   8.200  14.008
  219ETHO   H1167421  13.512   8.223  13.901
  219ETHO   H1367422  13.444   8.250  14.055
  219ETHO    C267423  13.666   8.245  14.062
  219ETHO   H2167424  13.677   8.351  14.029
  219ETHO   H2367425  13.759   8.201  14.021
  220ETHO    O167426  13.676   8.256  14.205
  220ETHO    C167427  13.695   8.128  14.263
  220ETHO   H1167428  13.748   8.061  14.193
  220ETHO   H1367429  13.595   8.094  14.298
  220ETHO    C267430  13.799   8.127  14.380
  220ETHO   H2167431  13.892   8.171  14.340
  220ETHO   H2367432  13.804   8.020  14.407
  221ETHO    O167433  13.752   8.185  14.497
  221ETHO    C167434  13.851   8.188  14.603
  221ETHO   H1167435  13.886   8.086  14.631
  221ETHO   H1367436  13.940   8.243  14.567
  221ETHO    C267437  13.805   8.262  14.727
  221ETHO   H2167438  13.895   8.253  14.792
  221ETHO   H2367439  13.720   8.208  14.775
  222ETHO    O167440  13.770   8.398  14.716
  222ETHO    C167441  13.735   8.455  14.846
  222ETHO   H1167442  13.715   8.378  14.924
  222ETHO   H1367443  13.810   8.530  14.880
  222ETHO    C267444  13.608   8.538  14.844
  222ETHO   H2167445  13.606   8.606  14.756
  222ETHO   H2367446  13.616   8.616  14.922
  223ETHO    O167447  13.485   8.465  14.841
  223ETHO    C167448  13.473   8.404  14.716
  223ETHO   H1167449  13.499   8.476  14.635
  223ETHO   H1367450  13.536   8.312  14.711
  223ETHO    C267451  13.321   8.370  14.690
  223ETHO   H2167452  13.319   8.332  14.586
  223ETHO   H2367453  13.262   8.464  14.694
  224ETHO    O167454  13.277   8.265  14.779
  224ETHO    C167455  13.139   8.226  14.764
  224ETHO   H1167456  13.066   8.308  14.781
  224ETHO   H1367457  13.125   8.182  14.663
  224ETHO    C267458  13.102   8.114  14.861
  224ETHO   H2167459  12.992   8.105  14.849
  224ETHO   H2367460  13.110   8.142  14.968
  225ETHO    O167461  13.152   7.978  14.833
  225ETHO    C167462  13.136   7.890  14.934
  225ETHO   H1167463  13.028   7.894  14.960
  225ETHO   H1367464  13.194   7.929  15.020
  225ETHO    C267465  13.183   7.748  14.904
  225ETHO   H2167466  13.173   7.693  15.000
  225ETHO   H2367467  13.281   7.753  14.853
  226ETHO    O167468  13.108   7.677  14.800
  226ETHO    C167469  13.175   7.558  14.766
  226ETHO   H1167470  13.128   7.505  14.681
  226ETHO   H1367471  13.276   7.590  14.733
  226ETHO    C267472  13.170   7.448  14.877
  226ETHO   H2167473  13.191   7.346  14.839
  226ETHO   H2367474  13.065   7.452  14.913
  227ETHO    O167475  13.269   7.486  14.970
  227ETHO    C167476  13.247   7.426  15.100
  227ETHO   H1167477  13.214   7.320  15.100
  227ETHO   H1367478  13.166   7.481  15.152
  227ETHO    C267479  13.371   7.428  15.180
  227ETHO   H2167480  13.355   7.392  15.284
  227ETHO   H2367481  13.420   7.527  15.191
  228ETHO    O167482  13.462   7.332  15.129
  228ETHO    C167483  13.596   7.378  15.156
  228ETHO   H1167484  13.618   7.484  15.128
  228ETHO   H1367485  13.621   7.362  15.263
  228ETHO    C267486  13.694   7.295  15.066
  228ETHO   H2167487  13.684   7.187  15.089
  228ETHO   H2367488  13.795   7.324  15.100
  229ETHO    O167489  13.679   7.329  14.930
  229ETHO    C167490  13.758   7.247  14.842
  229ETHO   H1167491  13.749   7.137  14.848
  229ETHO   H1367492  13.866   7.258  14.866
  229ETHO    C267493  13.723   7.299  14.706
  229ETHO   H2167494  13.787   7.257  14.625
  229ETHO   H2367495  13.739   7.409  14.708
  230ETHO    O167496  13.598   7.253  14.674
  230ETHO    C167497  13.569   7.299  14.542
  230ETHO   H1167498  13.620   7.397  14.529
  230ETHO   H1367499  13.625   7.222  14.484
  230ETHO    C267500  13.414   7.309  14.517
  230ETHO   H2167501  13.391   7.344  14.414
  230ETHO   H2367502  13.393   7.385  14.594
  231ETHO    O167503  13.346   7.188  14.551
  231ETHO    C167504  13.203   7.207  14.523
  231ETHO   H1167505  13.179   7.302  14.472
  231ETHO   H1367506  13.151   7.208  14.621
  231ETHO    C267507  13.143   7.087  14.437
  231ETHO   H2167508  13.195   7.095  14.339
  231ETHO   H2367509  13.034   7.082  14.418
  232ETHO    O167510  13.187   6.964  14.496
  232ETHO    C167511  13.083   6.891  14.568
  232ETHO   H1167512  13.048   6.961  14.647
  232ETHO   H1367513  12.996   6.860  14.505
  232ETHO    C267514  13.145   6.767  14.624
  232ETHO   H2167515  13.089   6.720  14.708
  232ETHO   H2367516  13.242   6.798  14.670
  233ETHO    O167517  13.174   6.687  14.513
  233ETHO    C167518  13.118   6.555  14.518
  233ETHO   H1167519  13.154   6.505  14.610
  233ETHO   H1367520  13.007   6.556  14.517
  233ETHO    C267521  13.179   6.473  14.395
  233ETHO   H2167522  13.174   6.540  14.306
  233ETHO   H2367523  13.120   6.380  14.389
  234ETHO    O167524  13.318   6.441  14.417
  234ETHO    C167525  13.389   6.402  14.308
  234ETHO   H1167526  13.326   6.331  14.249
  234ETHO   H1367527  13.399   6.497  14.252
  234ETHO    C267528  13.534   6.365  14.347
  234ETHO   H2167529  13.586   6.438  14.412
  234ETHO   H2367530  13.585   6.360  14.249
  235ETHO    O167531  13.533   6.241  14.407
  235ETHO    C167532  13.670   6.189  14.408
  235ETHO   H1167533  13.720   6.188  14.309
  235ETHO   H1367534  13.726   6.255  14.478
  235ETHO    C267535  13.682   6.048  14.482
  235ETHO   H2167536  13.622   6.049  14.576
  235ETHO   H2367537  13.788   6.040  14.512
  236ETHO    O167538  13.640   5.934  14.413
  236ETHO    C167539  13.709   5.822  14.459
  236ETHO   H1167540  13.678   5.797  14.563
  236ETHO   H1367541  13.818   5.841  14.445
  236ETHO    C267542  13.679   5.699  14.368
  236ETHO   H2167543  13.722   5.607  14.414
  236ETHO   H2367544  13.724   5.707  14.267
  237ETHO    O167545  13.544   5.661  14.348
  237ETHO    C167546  13.538   5.530  14.294
  237ETHO   H1167547  13.573   5.543  14.189
  237ETHO   H1367548  13.580   5.455  14.364
  237ETHO    C267549  13.386   5.505  14.277
  237ETHO   H2167550  13.375   5.426  14.200
  237ETHO   H2367551  13.334   5.596  14.242
  238ETHO    O167552  13.329   5.467  14.403
  238ETHO    C167553  13.190   5.437  14.390
  238ETHO   H1167554  13.140   5.512  14.327
  238ETHO   H1367555  13.142   5.445  14.490
  238ETHO    C267556  13.145   5.303  14.322
  238ETHO   H2167557  13.166   5.304  14.213
  238ETHO   H2367558  13.038   5.291  14.348
  239ETHO    O167559  13.216   5.205  14.387
  239ETHO    C167560  13.210   5.092  14.306
  239ETHO   H1167561  13.122   5.079  14.239
  239ETHO   H1367562  13.295   5.089  14.234
  239ETHO    C267563  13.213   4.965  14.395
  239ETHO   H2167564  13.310   4.963  14.450
  239ETHO   H2367565  13.130   4.987  14.465
  240ETHO    O167566  13.174   4.846  14.328
  240ETHO    C167567  13.202   4.731  14.410
  240ETHO   H1167568  13.169   4.761  14.512
  240ETHO   H1367569  13.313   4.730  14.411
  240ETHO    C267570  13.155   4.590  14.374
  240ETHO   H2167571  13.205   4.516  14.440
  240ETHO   H2367572  13.177   4.582  14.265
  241ETHO    O167573  13.012   4.577  14.396
  241ETHO    C167574  12.956   4.474  14.316
  241ETHO   H1167575  12.848   4.497  14.305
  241ETHO   H1367576  12.999   4.481  14.214
  241ETHO    C267577  12.968   4.330  14.373
  241ETHO   H2167578  13.073   4.313  14.405
  241ETHO   H2367579  12.947   4.259  14.290
  242ETHO    O167580  12.883   4.323  14.479
  242ETHO    C167581  12.877   4.185  14.527
  242ETHO   H1167582  12.962   4.174  14.597
  242ETHO   H1367583  12.888   4.112  14.444
  242ETHO    C267584  12.748   4.151  14.605
  242ETHO   H2167585  12.733   4.239  14.672
  242ETHO   H2367586  12.761   4.055  14.659
  243ETHO    O167587  12.640   4.139  14.515
  243ETHO    C167588  12.510   4.134  14.570
  243ETHO   H1167589  12.497   4.045  14.636
  243ETHO   H1367590  12.498   4.227  14.629
  243ETHO    C267591  12.393   4.131  14.474
  243ETHO   H2167592  12.396   4.230  14.423
  243ETHO   H2367593  12.293   4.125  14.521
  244ETHO    O167594  12.389   4.030  14.375
  244ETHO    C167595  12.281   4.053  14.280
  244ETHO   H1167596  12.312   4.133  14.209
  244ETHO   H1367597  12.180   4.072  14.321
  244ETHO    C267598  12.294   3.928  14.190
  244ETHO   H2167599  12.402   3.907  14.172
  244ETHO   H2367600  12.242   3.945  14.094
  245ETHO    O167601  12.245   3.817  14.264
  245ETHO    C167602  12.224   3.700  14.184
  245ETHO   H1167603  12.136   3.719  14.120
  245ETHO   H1367604  12.306   3.696  14.109
  245ETHO    C267605  12.198   3.573  14.270
  245ETHO   H2167606  12.176   3.494  14.195
  245ETHO   H2367607  12.103   3.578  14.327
  246ETHO    O167608  12.305   3.541  14.363
  246ETHO    C167609  12.291   3.404  14.408
  246ETHO   H1167610  12.324   3.339  14.325
  246ETHO   H1367611  12.184   3.387  14.436
  246ETHO    C267612  12.373   3.381  14.531
  246ETHO   H2167613  12.477   3.406  14.502
  246ETHO   H2367614  12.377   3.273  14.556
  247ETHO    O167615  12.330   3.460  14.641
  247ETHO    C167616  12.441   3.507  14.717
  247ETHO   H1167617  12.518   3.430  14.736
  247ETHO   H1367618  12.493   3.583  14.654
  247ETHO    C267619  12.413   3.580  14.845
  247ETHO   H2167620  12.304   3.596  14.863
  247ETHO   H2367621  12.449   3.520  14.932
  248ETHO    O167622  12.461   3.715  14.843
  248ETHO    C167623  12.447   3.770  14.971
  248ETHO   H1167624  12.366   3.729  15.035
  248ETHO   H1367625  12.543   3.778  15.026
  248ETHO    C267626  12.407   3.917  14.957
  248ETHO   H2167627  12.475   3.971  14.888
  248ETHO   H2367628  12.421   3.963  15.058
  249ETHO    O167629  12.273   3.944  14.926
  249ETHO    C167630  12.219   4.064  14.979
  249ETHO   H1167631  12.120   4.074  14.929
  249ETHO   H1367632  12.199   4.057  15.088
  249ETHO    C267633  12.300   4.184  14.937
  249ETHO   H2167634  12.233   4.272  14.944
  249ETHO   H2367635  12.324   4.180  14.828
  250ETHO    O167636  12.411   4.214  15.022
  250ETHO    C167637  12.474   4.343  15.001
  250ETHO   H1167638  12.486   4.360  14.892
  250ETHO   H1367639  12.411   4.425  15.040
  250ETHO    C267640  12.612   4.343  15.068
  250ETHO   H2167641  12.664   4.435  15.034
  250ETHO   H2367642  12.665   4.253  15.031
  251ETHO    O167643  12.615   4.341  15.210
  251ETHO    C167644  12.746   4.352  15.266
  251ETHO   H1167645  12.805   4.435  15.221
  251ETHO   H1367646  12.798   4.256  15.248
  251ETHO    C267647  12.727   4.374  15.417
  251ETHO   H2167648  12.663   4.464  15.433
  251ETHO   H2367649  12.826   4.380  15.465
  252ETHO    O167650  12.664   4.264  15.481
  252ETHO    C167651  12.650   4.289  15.621
  252ETHO   H1167652  12.736   4.342  15.667
  252ETHO   H1367653  12.562   4.354  15.635
  252ETHO    C267654  12.618   4.160  15.700
  252ETHO   H2167655  12.537   4.100  15.654
  252ETHO   H2367656  12.575   4.191  15.797
  253ETHO    O167657  12.730   4.073  15.724
  253ETHO    C167658  12.779   4.071  15.858
  253ETHO   H1167659  12.799   4.174  15.894
  253ETHO   H1367660  12.873   4.011  15.863
  253ETHO    C267661  12.685   4.014  15.965
  253ETHO   H2167662  12.748   4.004  16.057
  253ETHO   H2367663  12.642   3.916  15.936
  254ETHO    O167664  12.568   4.084  16.013
  254ETHO    C167665  12.505   4.006  16.111
  254ETHO   H1167666  12.461   3.914  16.066
  254ETHO   H1367667  12.581   3.982  16.189
  254ETHO    C267668  12.385   4.076  16.175
  254ETHO   H2167669  12.410   4.175  16.219
  254ETHO   H2367670  12.358   4.005  16.256
  255ETHO    O167671  12.279   4.084  16.076
  255ETHO    C167672  12.167   4.129  16.144
  255ETHO   H1167673  12.192   4.218  16.206
  255ETHO   H1367674  12.124   4.054  16.215
  255ETHO    C267675  12.056   4.166  16.040
  255ETHO   H2167676  11.968   4.203  16.098
  255ETHO   H2367677  12.020   4.075  15.988
  256ETHO    O167678  12.100   4.263  15.943
  256ETHO    C167679  12.001   4.290  15.847
  256ETHO   H1167680  11.986   4.202  15.781
  256ETHO   H1367681  11.913   4.326  15.904
  256ETHO    C267682  12.045   4.401  15.749
  256ETHO   H2167683  12.055   4.497  15.804
  256ETHO   H2367684  11.957   4.424  15.684
  257ETHO    O167685  12.162   4.369  15.666
  257ETHO    C167686  12.125   4.301  15.549
  257ETHO   H1167687  12.044   4.350  15.491
  257ETHO   H1367688  12.098   4.197  15.576
  257ETHO    C267689  12.248   4.316  15.462
  257ETHO   H2167690  12.214   4.265  15.370
  257ETHO   H2367691  12.336   4.271  15.512
  258ETHO    O167692  12.269   4.455  15.429
  258ETHO    C167693  12.375   4.473  15.342
  258ETHO   H1167694  12.454   4.414  15.393
  258ETHO   H1367695  12.348   4.410  15.254
  258ETHO    C267696  12.414   4.614  15.297
  258ETHO   H2167697  12.523   4.628  15.281
  258ETHO   H2367698  12.380   4.682  15.378
  259ETHO    O167699  12.352   4.629  15.169
  259ETHO    C167700  12.375   4.758  15.114
  259ETHO   H1167701  12.301   4.829  15.157
  259ETHO   H1367702  12.476   4.798  15.134
  259ETHO    C267703  12.347   4.739  14.964
  259ETHO   H2167704  12.336   4.842  14.924
  259ETHO   H2367705  12.248   4.688  14.958
  260ETHO    O167706  12.445   4.665  14.903
  260ETHO    C167707  12.454   4.683  14.766
  260ETHO   H1167708  12.362   4.627  14.738
  260ETHO   H1367709  12.438   4.788  14.734
  260ETHO    C267710  12.584   4.621  14.719
  260ETHO   H2167711  12.561   4.622  14.610
  260ETHO   H2367712  12.594   4.516  14.755
  261ETHO    O167713  12.698   4.698  14.739
  261ETHO    C167714  12.813   4.651  14.671
  261ETHO   H1167715  12.807   4.541  14.655
  261ETHO   H1367716  12.811   4.697  14.569
  261ETHO    C267717  12.948   4.691  14.728
  261ETHO   H2167718  13.021   4.634  14.666
  261ETHO   H2367719  12.967   4.655  14.832
  262ETHO    O167720  12.972   4.825  14.718
  262ETHO    C167721  13.079   4.873  14.807
  262ETHO   H1167722  13.177   4.824  14.788
  262ETHO   H1367723  13.039   4.856  14.909
  262ETHO    C267724  13.114   5.017  14.778
  262ETHO   H2167725  13.159   5.030  14.677
  262ETHO   H2367726  13.189   5.060  14.847
  263ETHO    O167727  12.997   5.103  14.774
  263ETHO    C167728  13.018   5.216  14.697
  263ETHO   H1167729  12.926   5.269  14.663
  263ETHO   H1367730  13.069   5.194  14.601
  263ETHO    C267731  13.108   5.317  14.772
  263ETHO   H2167732  13.115   5.410  14.712
  263ETHO   H2367733  13.209   5.275  14.791
  264ETHO    O167734  13.064   5.347  14.904
  264ETHO    C167735  13.098   5.478  14.942
  264ETHO   H1167736  13.096   5.542  14.851
  264ETHO   H1367737  13.201   5.485  14.981
  264ETHO    C267738  13.004   5.518  15.054
  264ETHO   H2167739  13.031   5.615  15.102
  264ETHO   H2367740  13.013   5.439  15.131
  265ETHO    O167741  12.877   5.531  14.998
  265ETHO    C167742  12.778   5.545  15.105
  265ETHO   H1167743  12.764   5.451  15.163
  265ETHO   H1367744  12.792   5.643  15.155
  265ETHO    C267745  12.637   5.557  15.030
  265ETHO   H2167746  12.639   5.651  14.971
  265ETHO   H2367747  12.559   5.563  15.109
  265ETHO    OZ67748  12.600   5.442  14.949
  265ETHO   HZ167749  12.514   5.469  14.915
    1ETHO    O167750   9.967   6.877  15.234
    1ETHO   HO167751   9.923   6.962  15.235
    1ETHO    C167752   9.990   6.850  15.371
    1ETHO   H1167753   9.899   6.797  15.406
    1ETHO   H1367754  10.015   6.944  15.425
    1ETHO    C267755  10.107   6.752  15.383
    1ETHO   H2167756  10.076   6.666  15.319
    1ETHO   H2367757  10.121   6.727  15.491
    2ETHO    O167758  10.228   6.804  15.325
    2ETHO    C167759  10.338   6.715  15.344
    2ETHO   H1167760  10.386   6.740  15.441
    2ETHO   H1367761  10.297   6.612  15.345
    2ETHO    C267762  10.459   6.746  15.245
    2ETHO   H2167763  10.546   6.681  15.267
    2ETHO   H2367764  10.495   6.850  15.262
    3ETHO    O167765  10.436   6.738  15.100
    3ETHO    C167766  10.551   6.775  15.030
    3ETHO   H1167767  10.633   6.710  15.068
    3ETHO   H1367768  10.581   6.878  15.059
    3ETHO    C267769  10.533   6.757  14.874
    3ETHO   H2167770  10.505   6.651  14.857
    3ETHO   H2367771  10.627   6.782  14.820
    4ETHO    O167772  10.438   6.850  14.823
    4ETHO    C167773  10.453   6.876  14.682
    4ETHO   H1167774  10.528   6.812  14.630
    4ETHO   H1367775  10.359   6.828  14.647
    4ETHO    C267776  10.459   7.028  14.640
    4ETHO   H2167777  10.494   7.039  14.535
    4ETHO   H2367778  10.537   7.079  14.700
    5ETHO    O167779  10.337   7.090  14.646
    5ETHO    C167780  10.346   7.235  14.651
    5ETHO   H1167781  10.333   7.262  14.758
    5ETHO   H1367782  10.441   7.282  14.617
    5ETHO    C267783  10.236   7.295  14.559
    5ETHO   H2167784  10.235   7.252  14.457
    5ETHO   H2367785  10.257   7.402  14.538
    6ETHO    O167786  10.105   7.294  14.611
    6ETHO    C167787  10.013   7.341  14.518
    6ETHO   H1167788   9.935   7.398  14.573
    6ETHO   H1367789  10.057   7.419  14.452
    6ETHO    C267790   9.956   7.227  14.429
    6ETHO   H2167791   9.861   7.264  14.384
    6ETHO   H2367792   9.921   7.148  14.499
    7ETHO    O167793  10.046   7.185  14.329
    7ETHO    C167794   9.986   7.084  14.245
    7ETHO   H1167795   9.985   6.983  14.293
    7ETHO   H1367796   9.884   7.113  14.213
    7ETHO    C267797  10.072   7.074  14.115
    7ETHO   H2167798  10.074   7.175  14.070
    7ETHO   H2367799  10.020   6.997  14.054
    8ETHO    O167800  10.201   7.040  14.153
    8ETHO    C167801  10.260   6.954  14.056
    8ETHO   H1167802  10.252   7.004  13.957
    8ETHO   H1367803  10.202   6.859  14.050
    8ETHO    C267804  10.405   6.933  14.083
    8ETHO   H2167805  10.448   7.029  14.118
    8ETHO   H2367806  10.463   6.907  13.992
    9ETHO    O167807  10.427   6.839  14.189
    9ETHO    C167808  10.425   6.699  14.156
    9ETHO   H1167809  10.324   6.653  14.155
    9ETHO   H1367810  10.464   6.689  14.053
    9ETHO    C267811  10.519   6.610  14.245
    9ETHO   H2167812  10.624   6.645  14.232
    9ETHO   H2367813  10.523   6.508  14.202
   10ETHO    O167814  10.488   6.616  14.381
   10ETHO    C167815  10.553   6.511  14.456
   10ETHO   H1167816  10.533   6.411  14.413
   10ETHO   H1367817  10.536   6.532  14.564
   10ETHO    C267818  10.708   6.526  14.453
   10ETHO   H2167819  10.756   6.499  14.549
   10ETHO   H2367820  10.718   6.637  14.447
   11ETHO    O167821  10.776   6.471  14.338
   11ETHO    C167822  10.914   6.511  14.343
   11ETHO   H1167823  10.931   6.620  14.358
   11ETHO   H1367824  10.958   6.456  14.429
   11ETHO    C267825  11.004   6.486  14.211
   11ETHO   H2167826  11.109   6.500  14.241
   11ETHO   H2367827  10.983   6.380  14.183
   12ETHO    O167828  10.978   6.577  14.104
   12ETHO    C167829  10.857   6.553  14.037
   12ETHO   H1167830  10.775   6.552  14.113
   12ETHO   H1367831  10.862   6.451  13.992
   12ETHO    C267832  10.836   6.663  13.936
   12ETHO   H2167833  10.861   6.767  13.965
   12ETHO   H2367834  10.729   6.647  13.909
   13ETHO    O167835  10.917   6.624  13.824
   13ETHO    C167836  10.916   6.720  13.715
   13ETHO   H1167837  10.946   6.820  13.752
   13ETHO   H1367838  10.987   6.684  13.638
   13ETHO    C267839  10.775   6.728  13.644
   13ETHO   H2167840  10.754   6.818  13.583
   13ETHO   H2367841  10.687   6.733  13.711
   14ETHO    O167842  10.746   6.614  13.559
   14ETHO    C167843  10.630   6.635  13.474
   14ETHO   H1167844  10.626   6.731  13.418
   14ETHO   H1367845  10.540   6.636  13.538
   14ETHO    C267846  10.609   6.522  13.380
   14ETHO   H2167847  10.503   6.529  13.349
   14ETHO   H2367848  10.637   6.428  13.432
   15ETHO    O167849  10.695   6.527  13.266
   15ETHO    C167850  10.631   6.574  13.150
   15ETHO   H1167851  10.535   6.524  13.127
   15ETHO   H1367852  10.603   6.679  13.172
   15ETHO    C267853  10.730   6.573  13.029
   15ETHO   H2167854  10.687   6.645  12.957
   15ETHO   H2367855  10.826   6.613  13.070
   16ETHO    O167856  10.744   6.444  12.974
   16ETHO    C167857  10.808   6.445  12.847
   16ETHO   H1167858  10.729   6.457  12.770
   16ETHO   H1367859  10.886   6.524  12.849
   16ETHO    C267860  10.893   6.312  12.838
   16ETHO   H2167861  10.945   6.314  12.740
   16ETHO   H2367862  10.827   6.223  12.845
   17ETHO    O167863  10.990   6.310  12.944
   17ETHO    C167864  11.078   6.198  12.927
   17ETHO   H1167865  11.020   6.113  12.886
   17ETHO   H1367866  11.156   6.216  12.850
   17ETHO    C267867  11.142   6.164  13.054
   17ETHO   H2167868  11.104   6.220  13.143
   17ETHO   H2367869  11.248   6.193  13.036
   18ETHO    O167870  11.135   6.032  13.076
   18ETHO    C167871  11.202   5.998  13.193
   18ETHO   H1167872  11.223   5.889  13.186
   18ETHO   H1367873  11.294   6.056  13.215
   18ETHO    C267874  11.101   6.005  13.310
   18ETHO   H2167875  11.053   6.105  13.308
   18ETHO   H2367876  11.158   5.987  13.403
   19ETHO    O167877  11.005   5.904  13.299
   19ETHO    C167878  10.901   5.910  13.394
   19ETHO   H1167879  10.816   5.968  13.351
   19ETHO   H1367880  10.919   5.977  13.481
   19ETHO    C267881  10.846   5.776  13.433
   19ETHO   H2167882  10.786   5.729  13.352
   19ETHO   H2367883  10.778   5.781  13.520
   20ETHO    O167884  10.946   5.686  13.482
   20ETHO    C167885  11.018   5.737  13.595
   20ETHO   H1167886  11.100   5.805  13.564
   20ETHO   H1367887  10.945   5.786  13.662
   20ETHO    C267888  11.092   5.625  13.675
   20ETHO   H2167889  11.170   5.666  13.744
   20ETHO   H2367890  11.136   5.548  13.609
   21ETHO    O167891  10.989   5.554  13.746
   21ETHO    C167892  11.030   5.425  13.798
   21ETHO   H1167893  11.011   5.430  13.908
   21ETHO   H1367894  11.140   5.408  13.793
   21ETHO    C267895  10.942   5.313  13.734
   21ETHO   H2167896  10.834   5.337  13.737
   21ETHO   H2367897  10.961   5.224  13.797
   22ETHO    O167898  10.981   5.270  13.604
   22ETHO    C167899  10.917   5.353  13.507
   22ETHO   H1167900  10.806   5.354  13.510
   22ETHO   H1367901  10.944   5.459  13.524
   22ETHO    C267902  10.964   5.312  13.367
   22ETHO   H2167903  10.934   5.206  13.362
   22ETHO   H2367904  10.910   5.364  13.284
   23ETHO    O167905  11.104   5.329  13.363
   23ETHO    C167906  11.162   5.308  13.232
   23ETHO   H1167907  11.142   5.396  13.168
   23ETHO   H1367908  11.100   5.224  13.194
   23ETHO    C267909  11.311   5.268  13.236
   23ETHO   H2167910  11.362   5.349  13.293
   23ETHO   H2367911  11.348   5.278  13.132
   24ETHO    O167912  11.335   5.144  13.287
   24ETHO    C167913  11.472   5.117  13.289
   24ETHO   H1167914  11.499   5.141  13.185
   24ETHO   H1367915  11.527   5.187  13.355
   24ETHO    C267916  11.490   4.971  13.341
   24ETHO   H2167917  11.445   4.949  13.440
   24ETHO   H2367918  11.599   4.951  13.349
   25ETHO    O167919  11.446   4.873  13.247
   25ETHO    C167920  11.444   4.732  13.298
   25ETHO   H1167921  11.336   4.707  13.305
   25ETHO   H1367922  11.481   4.737  13.402
   25ETHO    C267923  11.522   4.634  13.205
   25ETHO   H2167924  11.457   4.636  13.115
   25ETHO   H2367925  11.507   4.530  13.239
   26ETHO    O167926  11.658   4.671  13.182
   26ETHO    C167927  11.736   4.565  13.121
   26ETHO   H1167928  11.828   4.556  13.182
   26ETHO   H1367929  11.675   4.472  13.120
   26ETHO    C267930  11.763   4.605  12.979
   26ETHO   H2167931  11.858   4.553  12.956
   26ETHO   H2367932  11.777   4.715  12.970
   27ETHO    O167933  11.651   4.554  12.901
   27ETHO    C167934  11.689   4.550  12.758
   27ETHO   H1167935  11.754   4.463  12.737
   27ETHO   H1367936  11.752   4.638  12.731
   27ETHO    C267937  11.566   4.528  12.667
   27ETHO   H2167938  11.513   4.436  12.700
   27ETHO   H2367939  11.591   4.506  12.561
   28ETHO    O167940  11.487   4.655  12.674
   28ETHO    C167941  11.380   4.656  12.573
   28ETHO   H1167942  11.435   4.646  12.477
   28ETHO   H1367943  11.304   4.575  12.576
   28ETHO    C267944  11.305   4.791  12.565
   28ETHO   H2167945  11.265   4.797  12.462
   28ETHO   H2367946  11.378   4.871  12.587
   29ETHO    O167947  11.187   4.819  12.649
   29ETHO    C167948  11.229   4.859  12.778
   29ETHO   H1167949  11.267   4.962  12.758
   29ETHO   H1367950  11.299   4.783  12.818
   29ETHO    C267951  11.104   4.882  12.870
   29ETHO   H2167952  11.147   4.878  12.973
   29ETHO   H2367953  11.038   4.794  12.852
   30ETHO    O167954  11.032   5.007  12.848
   30ETHO    C167955  11.071   5.111  12.935
   30ETHO   H1167956  11.052   5.081  13.040
   30ETHO   H1367957  11.178   5.130  12.913
   30ETHO    C267958  10.991   5.238  12.922
   30ETHO   H2167959  10.974   5.247  12.812
   30ETHO   H2367960  11.032   5.331  12.965
   31ETHO    O167961  10.863   5.216  12.984
   31ETHO    C167962  10.782   5.330  12.955
   31ETHO   H1167963  10.757   5.333  12.847
   31ETHO   H1367964  10.686   5.306  13.006
   31ETHO    C267965  10.824   5.469  13.006
   31ETHO   H2167966  10.849   5.466  13.114
   31ETHO   H2367967  10.732   5.531  13.010
   32ETHO    O167968  10.921   5.532  12.920
   32ETHO    C167969  10.989   5.636  12.988
   32ETHO   H1167970  10.923   5.718  13.024
   32ETHO   H1367971  11.033   5.591  13.079
   32ETHO    C267972  11.112   5.695  12.905
   32ETHO   H2167973  11.152   5.610  12.845
   32ETHO   H2367974  11.192   5.728  12.975
   33ETHO    O167975  11.081   5.796  12.816
   33ETHO    C167976  11.204   5.866  12.778
   33ETHO   H1167977  11.245   5.911  12.871
   33ETHO   H1367978  11.288   5.802  12.743
   33ETHO    C267979  11.169   5.973  12.669
   33ETHO   H2167980  11.086   6.038  12.703
   33ETHO   H2367981  11.138   5.929  12.572
   34ETHO    O167982  11.279   6.069  12.662
   34ETHO    C167983  11.247   6.177  12.570
   34ETHO   H1167984  11.180   6.245  12.627
   34ETHO   H1367985  11.189   6.149  12.479
   34ETHO    C267986  11.359   6.260  12.512
   34ETHO   H2167987  11.435   6.280  12.591
   34ETHO   H2367988  11.332   6.357  12.466
   35ETHO    O167989  11.423   6.184  12.414
   35ETHO    C167990  11.542   6.248  12.360
   35ETHO   H1167991  11.514   6.341  12.306
   35ETHO   H1367992  11.608   6.274  12.446
   35ETHO    C267993  11.613   6.161  12.263
   35ETHO   H2167994  11.684   6.217  12.200
   35ETHO   H2367995  11.532   6.118  12.200
   36ETHO    O167996  11.675   6.048  12.322
   36ETHO    C167997  11.677   5.941  12.223
   36ETHO   H1167998  11.714   5.980  12.125
   36ETHO   H1367999  11.578   5.890  12.220
   36ETHO    C268000  11.778   5.828  12.264
   36ETHO   H2168001  11.772   5.743  12.193
   36ETHO   H2368002  11.759   5.800  12.370
   37ETHO    O168003  11.903   5.892  12.247
   37ETHO    C168004  12.011   5.797  12.258
   37ETHO   H1168005  12.011   5.756  12.361
   37ETHO   H1368006  11.999   5.708  12.193
   37ETHO    C268007  12.139   5.875  12.223
   37ETHO   H2168008  12.127   5.921  12.123
   37ETHO   H2368009  12.220   5.799  12.217
   38ETHO    O168010  12.174   5.980  12.310
   38ETHO    C168011  12.314   6.004  12.303
   38ETHO   H1168012  12.369   5.911  12.277
   38ETHO   H1368013  12.352   6.045  12.400
   38ETHO    C268014  12.355   6.097  12.185
   38ETHO   H2168015  12.457   6.135  12.206
   38ETHO   H2368016  12.284   6.183  12.184
   39ETHO    O168017  12.352   6.027  12.063
   39ETHO    C168018  12.486   6.005  12.014
   39ETHO   H1168019  12.536   6.101  11.989
   39ETHO   H1368020  12.549   5.960  12.095
   39ETHO    C268021  12.476   5.922  11.882
   39ETHO   H2168022  12.581   5.914  11.846
   39ETHO   H2368023  12.421   5.981  11.806
   40ETHO    O168024  12.418   5.796  11.908
   40ETHO    C168025  12.509   5.708  11.957
   40ETHO   H1168026  12.571   5.754  12.037
   40ETHO   H1368027  12.573   5.687  11.868
   40ETHO    C268028  12.441   5.573  11.993
   40ETHO   H2168029  12.520   5.495  11.988
   40ETHO   H2368030  12.378   5.541  11.908
   41ETHO    O168031  12.360   5.563  12.108
   41ETHO    C168032  12.439   5.590  12.222
   41ETHO   H1168033  12.544   5.563  12.197
   41ETHO   H1368034  12.449   5.700  12.223
   41ETHO    C268035  12.395   5.528  12.352
   41ETHO   H2168036  12.286   5.544  12.366
   41ETHO   H2368037  12.444   5.564  12.444
   42ETHO    O168038  12.401   5.390  12.357
   42ETHO    C168039  12.364   5.344  12.487
   42ETHO   H1168040  12.459   5.339  12.545
   42ETHO   H1368041  12.286   5.405  12.536
   42ETHO    C268042  12.311   5.197  12.487
   42ETHO   H2168043  12.385   5.119  12.457
   42ETHO   H2368044  12.229   5.191  12.412
   43ETHO    O168045  12.277   5.145  12.610
   43ETHO    C168046  12.225   5.009  12.602
   43ETHO   H1168047  12.118   5.019  12.574
   43ETHO   H1368048  12.278   4.957  12.520
   43ETHO    C268049  12.226   4.939  12.739
   43ETHO   H2168050  12.324   4.945  12.791
   43ETHO   H2368051  12.201   4.831  12.726
   44ETHO    O168052  12.124   4.996  12.824
   44ETHO    C168053  12.118   4.928  12.947
   44ETHO   H1168054  12.133   4.819  12.930
   44ETHO   H1368055  12.199   4.969  13.010
   44ETHO    C268056  11.976   4.939  13.016
   44ETHO   H2168057  11.982   4.883  13.112
   44ETHO   H2368058  11.902   4.884  12.955
   45ETHO    O168059  11.930   5.074  13.033
   45ETHO    C168060  11.787   5.096  13.023
   45ETHO   H1168061  11.736   5.044  13.107
   45ETHO   H1368062  11.753   5.065  12.922
   45ETHO    C268063  11.740   5.243  13.035
   45ETHO   H2168064  11.639   5.244  12.990
   45ETHO   H2368065  11.799   5.308  12.967
   46ETHO    O168066  11.748   5.284  13.171
   46ETHO    C168067  11.704   5.421  13.188
   46ETHO   H1168068  11.767   5.486  13.123
   46ETHO   H1368069  11.600   5.424  13.149
   46ETHO    C268070  11.704   5.478  13.329
   46ETHO   H2168071  11.686   5.587  13.319
   46ETHO   H2368072  11.802   5.466  13.379
   47ETHO    O168073  11.605   5.408  13.402
   47ETHO    C168074  11.588   5.451  13.537
   47ETHO   H1168075  11.689   5.479  13.576
   47ETHO   H1368076  11.540   5.373  13.599
   47ETHO    C268077  11.491   5.570  13.533
   47ETHO   H2168078  11.462   5.593  13.637
   47ETHO   H2368079  11.405   5.551  13.466
   48ETHO    O168080  11.553   5.693  13.492
   48ETHO    C168081  11.457   5.799  13.505
   48ETHO   H1168082  11.399   5.805  13.411
   48ETHO   H1368083  11.391   5.782  13.593
   48ETHO    C268084  11.524   5.940  13.511
   48ETHO   H2168085  11.614   5.947  13.575
   48ETHO   H2368086  11.555   5.967  13.408
   49ETHO    O168087  11.418   6.035  13.554
   49ETHO    C168088  11.460   6.168  13.547
   49ETHO   H1168089  11.512   6.191  13.452
   49ETHO   H1368090  11.540   6.166  13.625
   49ETHO    C268091  11.349   6.265  13.586
   49ETHO   H2168092  11.401   6.360  13.610
   49ETHO   H2368093  11.293   6.225  13.673
   50ETHO    O168094  11.259   6.292  13.479
   50ETHO    C168095  11.136   6.357  13.524
   50ETHO   H1168096  11.070   6.290  13.584
   50ETHO   H1368097  11.162   6.437  13.597
   50ETHO    C268098  11.055   6.428  13.417
   50ETHO   H2168099  10.959   6.452  13.466
   50ETHO   H2368100  11.035   6.356  13.334
   51ETHO    O168101  11.109   6.547  13.361
   51ETHO    C168102  11.017   6.611  13.279
   51ETHO   H1168103  10.933   6.653  13.339
   51ETHO   H1368104  10.985   6.530  13.211
   51ETHO    C268105  11.083   6.723  13.196
   51ETHO   H2168106  11.035   6.742  13.097
   51ETHO   H2368107  11.188   6.689  13.188
   52ETHO    O168108  11.088   6.844  13.269
   52ETHO    C168109  11.186   6.934  13.226
   52ETHO   H1168110  11.190   6.930  13.115
   52ETHO   H1368111  11.150   7.036  13.248
   52ETHO    C268112  11.328   6.911  13.294
   52ETHO   H2168113  11.329   6.930  13.403
   52ETHO   H2368114  11.406   6.982  13.260
   53ETHO    O168115  11.384   6.784  13.251
   53ETHO    C168116  11.519   6.772  13.299
   53ETHO   H1168117  11.579   6.689  13.256
   53ETHO   H1368118  11.567   6.870  13.278
   53ETHO    C268119  11.535   6.739  13.449
   53ETHO   H2168120  11.456   6.666  13.478
   53ETHO   H2368121  11.509   6.826  13.514
   54ETHO    O168122  11.662   6.685  13.484
   54ETHO    C168123  11.673   6.549  13.451
   54ETHO   H1168124  11.576   6.501  13.425
   54ETHO   H1368125  11.736   6.546  13.360
   54ETHO    C268126  11.750   6.470  13.553
   54ETHO   H2168127  11.840   6.531  13.578
   54ETHO   H2368128  11.790   6.375  13.512
   55ETHO    O168129  11.680   6.436  13.666
   55ETHO    C168130  11.763   6.377  13.767
   55ETHO   H1168131  11.820   6.292  13.722
   55ETHO   H1368132  11.836   6.452  13.804
   55ETHO    C268133  11.677   6.324  13.878
   55ETHO   H2168134  11.744   6.325  13.967
   55ETHO   H2368135  11.589   6.387  13.900
   56ETHO    O168136  11.648   6.184  13.858
   56ETHO    C168137  11.539   6.143  13.934
   56ETHO   H1168138  11.450   6.208  13.920
   56ETHO   H1368139  11.562   6.161  14.041
   56ETHO    C268140  11.508   5.997  13.915
   56ETHO   H2168141  11.487   5.994  13.805
   56ETHO   H2368142  11.421   5.962  13.975
   57ETHO    O168143  11.617   5.913  13.940
   57ETHO    C168144  11.588   5.785  13.894
   57ETHO   H1168145  11.489   5.748  13.927
   57ETHO   H1368146  11.591   5.778  13.783
   57ETHO    C268147  11.686   5.680  13.958
   57ETHO   H2168148  11.647   5.580  13.929
   57ETHO   H2368149  11.696   5.691  14.068
   58ETHO    O168150  11.813   5.691  13.905
   58ETHO    C168151  11.906   5.611  13.978
   58ETHO   H1168152  11.981   5.588  13.900
   58ETHO   H1368153  11.863   5.512  14.005
   58ETHO    C268154  11.967   5.696  14.084
   58ETHO   H2168155  11.998   5.633  14.171
   58ETHO   H2368156  11.893   5.766  14.130
   59ETHO    O168157  12.075   5.774  14.024
   59ETHO    C168158  12.135   5.857  14.125
   59ETHO   H1168159  12.063   5.931  14.167
   59ETHO   H1368160  12.184   5.798  14.206
   59ETHO    C268161  12.245   5.944  14.056
   59ETHO   H2168162  12.314   5.883  13.993
   59ETHO   H2368163  12.310   5.990  14.133
   60ETHO    O168164  12.192   6.049  13.974
   60ETHO    C168165  12.135   5.996  13.848
   60ETHO   H1168166  12.031   5.965  13.872
   60ETHO   H1368167  12.191   5.907  13.811
   60ETHO    C268168  12.153   6.108  13.749
   60ETHO   H2168169  12.251   6.159  13.756
   60ETHO   H2368170  12.072   6.181  13.774
   61ETHO    O168171  12.128   6.054  13.617
   61ETHO    C168172  11.993   6.016  13.600
   61ETHO   H1168173  11.970   5.918  13.646
   61ETHO   H1368174  11.930   6.091  13.652
   61ETHO    C268175  11.955   5.986  13.454
   61ETHO   H2168176  12.031   5.909  13.429
   61ETHO   H2368177  11.963   6.083  13.399
   62ETHO    O168178  11.828   5.934  13.437
   62ETHO    C168179  11.802   5.897  13.304
   62ETHO   H1168180  11.712   5.833  13.316
   62ETHO   H1368181  11.885   5.832  13.269
   62ETHO    C268182  11.780   6.010  13.207
   62ETHO   H2168183  11.880   6.045  13.174
   62ETHO   H2368184  11.724   6.092  13.257
   63ETHO    O168185  11.712   5.977  13.088
   63ETHO    C168186  11.679   6.094  13.022
   63ETHO   H1168187  11.596   6.145  13.074
   63ETHO   H1368188  11.771   6.155  13.009
   63ETHO    C268189  11.624   6.046  12.887
   63ETHO   H2168190  11.595   6.134  12.825
   63ETHO   H2368191  11.526   5.997  12.900
   64ETHO    O168192  11.719   5.969  12.811
   64ETHO    C168193  11.819   6.052  12.748
   64ETHO   H1168194  11.874   6.109  12.826
   64ETHO   H1368195  11.769   6.115  12.672
   64ETHO    C268196  11.906   5.965  12.663
   64ETHO   H2168197  11.990   6.026  12.622
   64ETHO   H2368198  11.848   5.922  12.579
   65ETHO    O168199  11.963   5.866  12.747
   65ETHO    C168200  12.043   5.771  12.687
   65ETHO   H1168201  12.083   5.702  12.765
   65ETHO   H1368202  11.984   5.708  12.618
   65ETHO    C268203  12.154   5.826  12.601
   65ETHO   H2168204  12.131   5.905  12.525
   65ETHO   H2368205  12.183   5.738  12.539
   66ETHO    O168206  12.275   5.866  12.675
   66ETHO    C168207  12.354   5.758  12.722
   66ETHO   H1168208  12.347   5.676  12.647
   66ETHO   H1368209  12.306   5.715  12.813
   66ETHO    C268210  12.501   5.785  12.749
   66ETHO   H2168211  12.550   5.831  12.660
   66ETHO   H2368212  12.549   5.686  12.765
   67ETHO    O168213  12.505   5.868  12.862
   67ETHO    C168214  12.631   5.860  12.923
   67ETHO   H1168215  12.640   5.753  12.952
   67ETHO   H1368216  12.707   5.879  12.844
   67ETHO    C268217  12.627   5.959  13.043
   67ETHO   H2168218  12.606   6.061  13.005
   67ETHO   H2368219  12.730   5.947  13.085
   68ETHO    O168220  12.536   5.917  13.150
   68ETHO    C168221  12.535   6.023  13.251
   68ETHO   H1168222  12.636   6.029  13.297
   68ETHO   H1368223  12.525   6.118  13.196
   68ETHO    C268224  12.441   6.002  13.372
   68ETHO   H2168225  12.341   5.974  13.334
   68ETHO   H2368226  12.424   6.093  13.433
   69ETHO    O168227  12.488   5.895  13.456
   69ETHO    C168228  12.394   5.873  13.561
   69ETHO   H1168229  12.388   5.959  13.631
   69ETHO   H1368230  12.292   5.855  13.523
   69ETHO    C268231  12.429   5.753  13.637
   69ETHO   H2168232  12.397   5.767  13.743
   69ETHO   H2368233  12.537   5.726  13.637
   70ETHO    O168234  12.359   5.637  13.586
   70ETHO    C168235  12.228   5.623  13.636
   70ETHO   H1168236  12.236   5.646  13.744
   70ETHO   H1368237  12.159   5.698  13.593
   70ETHO    C268238  12.178   5.479  13.606
   70ETHO   H2168239  12.182   5.460  13.496
   70ETHO   H2368240  12.072   5.465  13.633
   71ETHO    O168241  12.252   5.377  13.671
   71ETHO    C168242  12.188   5.246  13.671
   71ETHO   H1168243  12.259   5.172  13.629
   71ETHO   H1368244  12.109   5.233  13.594
   71ETHO    C268245  12.154   5.199  13.805
   71ETHO   H2168246  12.248   5.194  13.863
   71ETHO   H2368247  12.121   5.093  13.808
   72ETHO    O168248  12.063   5.293  13.870
   72ETHO    C168249  11.930   5.240  13.872
   72ETHO   H1168250  11.933   5.148  13.934
   72ETHO   H1368251  11.877   5.318  13.932
   72ETHO    C268252  11.873   5.218  13.729
   72ETHO   H2168253  11.903   5.298  13.658
   72ETHO   H2368254  11.762   5.227  13.740
   73ETHO    O168255  11.892   5.096  13.660
   73ETHO    C168256  11.840   5.107  13.526
   73ETHO   H1168257  11.870   5.205  13.484
   73ETHO   H1368258  11.730   5.118  13.538
   73ETHO    C268259  11.878   4.984  13.444
   73ETHO   H2168260  11.984   4.959  13.466
   73ETHO   H2368261  11.864   5.007  13.337
   74ETHO    O168262  11.805   4.873  13.484
   74ETHO    C168263  11.855   4.754  13.437
   74ETHO   H1168264  11.869   4.758  13.327
   74ETHO   H1368265  11.953   4.745  13.488
   74ETHO    C268266  11.784   4.625  13.489
   74ETHO   H2168267  11.835   4.548  13.428
   74ETHO   H2368268  11.679   4.630  13.455
   75ETHO    O168269  11.796   4.604  13.629
   75ETHO    C168270  11.728   4.493  13.666
   75ETHO   H1168271  11.762   4.402  13.612
   75ETHO   H1368272  11.626   4.515  13.629
   75ETHO    C268273  11.729   4.452  13.817
   75ETHO   H2168274  11.638   4.392  13.841
   75ETHO   H2368275  11.732   4.532  13.893
   76ETHO    O168276  11.835   4.362  13.849
   76ETHO    C168277  11.931   4.422  13.929
   76ETHO   H1168278  11.987   4.503  13.878
   76ETHO   H1368279  11.895   4.471  14.023
   76ETHO    C268280  12.042   4.322  13.956
   76ETHO   H2168281  12.004   4.220  13.977
   76ETHO   H2368282  12.092   4.346  14.052
   77ETHO    O168283  12.143   4.315  13.857
   77ETHO    C168284  12.248   4.235  13.879
   77ETHO   H1168285  12.219   4.130  13.895
   77ETHO   H1368286  12.287   4.264  13.980
   77ETHO    C268287  12.352   4.262  13.766
   77ETHO   H2168288  12.441   4.198  13.781
   77ETHO   H2368289  12.378   4.370  13.773
   78ETHO    O168290  12.310   4.240  13.632
   78ETHO    C168291  12.316   4.097  13.606
   78ETHO   H1168292  12.417   4.054  13.595
   78ETHO   H1368293  12.266   4.049  13.692
   78ETHO    C268294  12.237   4.056  13.487
   78ETHO   H2168295  12.138   4.105  13.501
   78ETHO   H2368296  12.201   3.951  13.491
   79ETHO    O168297  12.299   4.077  13.360
   79ETHO    C168298  12.205   4.037  13.259
   79ETHO   H1168299  12.221   3.927  13.257
   79ETHO   H1368300  12.099   4.063  13.279
   79ETHO    C268301  12.245   4.086  13.119
   79ETHO   H2168302  12.171   4.046  13.046
   79ETHO   H2368303  12.348   4.047  13.102
   80ETHO    O168304  12.236   4.228  13.104
   80ETHO    C168305  12.108   4.282  13.098
   80ETHO   H1168306  12.059   4.249  13.003
   80ETHO   H1368307  12.041   4.256  13.183
   80ETHO    C268308  12.123   4.435  13.087
   80ETHO   H2168309  12.024   4.484  13.081
   80ETHO   H2368310  12.173   4.462  12.992
   81ETHO    O168311  12.197   4.495  13.193
   81ETHO    C168312  12.118   4.501  13.313
   81ETHO   H1168313  12.024   4.557  13.292
   81ETHO   H1368314  12.108   4.401  13.359
   81ETHO    C268315  12.207   4.586  13.402
   81ETHO   H2168316  12.176   4.560  13.505
   81ETHO   H2368317  12.314   4.561  13.386
   82ETHO    O168318  12.188   4.723  13.368
   82ETHO    C168319  12.281   4.812  13.428
   82ETHO   H1168320  12.384   4.770  13.435
   82ETHO   H1368321  12.247   4.846  13.528
   82ETHO    C268322  12.280   4.933  13.331
   82ETHO   H2168323  12.258   4.890  13.231
   82ETHO   H2368324  12.386   4.967  13.328
   83ETHO    O168325  12.193   5.038  13.375
   83ETHO    C168326  12.242   5.159  13.325
   83ETHO   H1168327  12.323   5.199  13.390
   83ETHO   H1368328  12.286   5.140  13.225
   83ETHO    C268329  12.133   5.258  13.290
   83ETHO   H2168330  12.083   5.289  13.384
   83ETHO   H2368331  12.059   5.216  13.219
   84ETHO    O168332  12.187   5.375  13.223
   84ETHO    C168333  12.087   5.449  13.152
   84ETHO   H1168334  12.007   5.490  13.217
   84ETHO   H1368335  12.037   5.378  13.083
   84ETHO    C268336  12.154   5.544  13.054
   84ETHO   H2168337  12.083   5.602  12.991
   84ETHO   H2368338  12.192   5.472  12.978
   85ETHO    O168339  12.250   5.642  13.105
   85ETHO    C168340  12.186   5.753  13.155
   85ETHO   H1168341  12.084   5.731  13.193
   85ETHO   H1368342  12.246   5.793  13.239
   85ETHO    C268343  12.176   5.868  13.059
   85ETHO   H2168344  12.091   5.852  12.989
   85ETHO   H2368345  12.269   5.855  13.001
   86ETHO    O168346  12.170   6.002  13.112
   86ETHO    C168347  12.204   6.101  13.021
   86ETHO   H1168348  12.139   6.097  12.931
   86ETHO   H1368349  12.307   6.086  12.984
   86ETHO    C268350  12.194   6.246  13.075
   86ETHO   H2168351  12.243   6.310  12.998
   86ETHO   H2368352  12.253   6.251  13.169
   87ETHO    O168353  12.062   6.298  13.095
   87ETHO    C168354  12.061   6.436  13.140
   87ETHO   H1168355  12.133   6.497  13.080
   87ETHO   H1368356  11.960   6.475  13.115
   87ETHO    C268357  12.089   6.461  13.286
   87ETHO   H2168358  12.019   6.397  13.345
   87ETHO   H2368359  12.075   6.569  13.310
   88ETHO    O168360  12.217   6.425  13.316
   88ETHO    C168361  12.243   6.411  13.457
   88ETHO   H1168362  12.201   6.313  13.489
   88ETHO   H1368363  12.197   6.499  13.507
   88ETHO    C268364  12.394   6.411  13.485
   88ETHO   H2168365  12.451   6.384  13.394
   88ETHO   H2368366  12.430   6.343  13.565
   89ETHO    O168367  12.441   6.543  13.511
   89ETHO    C168368  12.571   6.535  13.574
   89ETHO   H1168369  12.552   6.502  13.678
   89ETHO   H1368370  12.635   6.469  13.511
   89ETHO    C268371  12.638   6.677  13.576
   89ETHO   H2168372  12.631   6.721  13.474
   89ETHO   H2368373  12.746   6.670  13.603
   90ETHO    O168374  12.570   6.753  13.676
   90ETHO    C168375  12.622   6.883  13.684
   90ETHO   H1168376  12.722   6.876  13.731
   90ETHO   H1368377  12.623   6.936  13.586
   90ETHO    C268378  12.538   6.976  13.774
   90ETHO   H2168379  12.584   7.077  13.775
   90ETHO   H2368380  12.536   6.934  13.877
   91ETHO    O168381  12.403   6.995  13.717
   91ETHO    C168382  12.342   7.118  13.764
   91ETHO   H1168383  12.321   7.113  13.873
   91ETHO   H1368384  12.407   7.205  13.743
   91ETHO    C268385  12.212   7.166  13.693
   91ETHO   H2168386  12.158   7.241  13.753
   91ETHO   H2368387  12.142   7.080  13.688
   92ETHO    O168388  12.232   7.218  13.562
   92ETHO    C168389  12.229   7.362  13.560
   92ETHO   H1168390  12.147   7.405  13.622
   92ETHO   H1368391  12.328   7.407  13.581
   92ETHO    C268392  12.187   7.409  13.421
   92ETHO   H2168393  12.158   7.516  13.419
   92ETHO   H2368394  12.103   7.342  13.393
   93ETHO    O168395  12.281   7.381  13.314
   93ETHO    C168396  12.364   7.495  13.292
   93ETHO   H1168397  12.393   7.545  13.388
   93ETHO   H1368398  12.302   7.566  13.234
   93ETHO    C268399  12.486   7.470  13.209
   93ETHO   H2168400  12.525   7.567  13.174
   93ETHO   H2368401  12.453   7.420  13.115
   94ETHO    O168402  12.582   7.408  13.292
   94ETHO    C168403  12.692   7.359  13.220
   94ETHO   H1168404  12.660   7.276  13.154
   94ETHO   H1368405  12.736   7.434  13.150
   94ETHO    C268406  12.801   7.310  13.310
   94ETHO   H2168407  12.880   7.249  13.262
   94ETHO   H2368408  12.753   7.243  13.386
   95ETHO    O168409  12.870   7.421  13.367
   95ETHO    C168410  12.918   7.381  13.495
   95ETHO   H1168411  12.985   7.292  13.490
   95ETHO   H1368412  12.844   7.346  13.570
   95ETHO    C268413  12.991   7.496  13.562
   95ETHO   H2168414  13.073   7.536  13.498
   95ETHO   H2368415  13.033   7.460  13.659
   96ETHO    O168416  12.905   7.604  13.579
   96ETHO    C168417  12.967   7.733  13.562
   96ETHO   H1168418  13.051   7.751  13.632
   96ETHO   H1368419  13.017   7.730  13.463
   96ETHO    C268420  12.871   7.852  13.550
   96ETHO   H2168421  12.922   7.948  13.573
   96ETHO   H2368422  12.785   7.826  13.615
   97ETHO    O168423  12.817   7.867  13.419
   97ETHO    C168424  12.777   7.999  13.384
   97ETHO   H1168425  12.866   8.065  13.392
   97ETHO   H1368426  12.690   8.031  13.444
   97ETHO    C268427  12.733   8.005  13.236
   97ETHO   H2168428  12.645   7.940  13.217
   97ETHO   H2368429  12.817   7.977  13.169
   98ETHO    O168430  12.694   8.140  13.202
   98ETHO    C168431  12.646   8.156  13.071
   98ETHO   H1168432  12.685   8.254  13.035
   98ETHO   H1368433  12.701   8.074  13.021
   98ETHO    C268434  12.490   8.141  13.047
   98ETHO   H2168435  12.428   8.219  13.095
   98ETHO   H2368436  12.449   8.046  13.088
   99ETHO    O168437  12.458   8.146  12.909
   99ETHO    C168438  12.373   8.042  12.870
   99ETHO   H1168439  12.284   8.047  12.936
   99ETHO   H1368440  12.413   7.940  12.889
   99ETHO    C268441  12.332   8.045  12.715
   99ETHO   H2168442  12.322   7.941  12.678
   99ETHO   H2368443  12.412   8.103  12.665
  100ETHO    O168444  12.202   8.103  12.693
  100ETHO    C168445  12.166   8.112  12.560
  100ETHO   H1168446  12.249   8.151  12.498
  100ETHO   H1368447  12.139   8.014  12.516
  100ETHO    C268448  12.051   8.209  12.558
  100ETHO   H2168449  12.100   8.307  12.575
  100ETHO   H2368450  11.981   8.195  12.643
  101PROX    O168451  11.985   8.208  12.431
  101PROX    C168452  12.047   8.299  12.341
  101PROX   H1168453  12.031   8.404  12.375
  101PROX   H1368454  12.155   8.272  12.342
  101PROX    C268455  12.004   8.270  12.194
  101PROX   H2168456  12.048   8.173  12.161
  101PROX    C368457  12.051   8.369  12.088
  101PROX   H3168458  12.000   8.345  11.993
  101PROX   H3268459  12.029   8.473  12.120
  101PROX   H3368460  12.160   8.362  12.065
  102PROX    O168461  11.867   8.253  12.193
  102PROX    C168462  11.792   8.377  12.207
  102PROX   H1168463  11.825   8.430  12.299
  102PROX   H1368464  11.801   8.446  12.120
  102PROX    C268465  11.645   8.346  12.227
  102PROX   H2168466  11.633   8.263  12.301
  102PROX    C368467  11.568   8.306  12.101
  102PROX   H3168468  11.462   8.288  12.130
  102PROX   H3268469  11.573   8.383  12.022
  102PROX   H3368470  11.589   8.206  12.059
  103PROX    O168471  11.591   8.458  12.295
  103PROX    C168472  11.460   8.437  12.351
  103PROX   H1168473  11.427   8.536  12.390
  103PROX   H1368474  11.398   8.406  12.265
  103PROX    C268475  11.435   8.331  12.464
  103PROX   H2168476  11.492   8.237  12.444
  103PROX    C368477  11.281   8.296  12.464
  103PROX   H3168478  11.271   8.204  12.403
  103PROX   H3268479  11.229   8.280  12.561
  103PROX   H3368480  11.227   8.380  12.416
  104PROX    O168481  11.469   8.387  12.590
  104PROX    C168482  11.464   8.301  12.706
  104PROX   H1168483  11.391   8.344  12.777
  104PROX   H1368484  11.434   8.198  12.677
  104PROX    C268485  11.605   8.281  12.774
  104PROX   H2168486  11.651   8.381  12.784
  104PROX    C368487  11.702   8.192  12.687
  104PROX   H3168488  11.776   8.161  12.764
  104PROX   H3268489  11.657   8.105  12.636
  104PROX   H3368490  11.741   8.265  12.613
  105PROX    O168491  11.576   8.220  12.900
  105PROX    C168492  11.552   8.315  13.002
  105PROX   H1168493  11.520   8.415  12.965
  105PROX   H1368494  11.490   8.267  13.081
  105PROX    C268495  11.696   8.341  13.067
  105PROX   H2168496  11.738   8.242  13.094
  105PROX    C368497  11.667   8.423  13.197
  105PROX   H3168498  11.613   8.518  13.173
  105PROX   H3268499  11.606   8.365  13.270
  105PROX   H3368500  11.764   8.446  13.245
  106PROX    O168501  11.779   8.414  12.977
  106PROX    C168502  11.916   8.395  13.014
  106PROX   H1168503  11.942   8.415  13.120
  106PROX   H1368504  11.933   8.285  13.004
  106PROX    C268505  12.018   8.476  12.917
  106PROX   H2168506  11.983   8.471  12.811
  106PROX    C368507  12.155   8.414  12.927
  106PROX   H3168508  12.154   8.305  12.906
  106PROX   H3268509  12.235   8.465  12.869
  106PROX   H3368510  12.186   8.415  13.033
  107PROX    O168511  12.036   8.616  12.950
  107PROX    C168512  11.933   8.700  12.892
  107PROX   H1168513  11.960   8.717  12.785
  107PROX   H1368514  11.840   8.640  12.896
  107PROX    C268515  11.915   8.829  12.979
  107PROX   H2168516  12.017   8.869  12.996
  107PROX    C368517  11.846   8.794  13.112
  107PROX   H3168518  11.842   8.871  13.191
  107PROX   H3268519  11.739   8.769  13.093
  107PROX   H3368520  11.920   8.719  13.146
  108PROX    O168521  11.842   8.927  12.912
  108PROX    C168522  11.913   8.984  12.800
  108PROX   H1168523  12.006   9.027  12.842
  108PROX   H1368524  11.938   8.904  12.727
  108PROX    C268525  11.839   9.093  12.730
  108PROX   H2168526  11.824   9.176  12.802
  108PROX    C368527  11.709   9.061  12.668
  108PROX   H3168528  11.721   8.979  12.594
  108PROX   H3268529  11.645   9.018  12.748
  108PROX   H3368530  11.654   9.147  12.625
  109PROX    O168531  11.916   9.134  12.619
  109PROX    C168532  11.997   9.253  12.649
  109PROX   H1168533  12.060   9.214  12.732
  109PROX   H1368534  12.060   9.277  12.560
  109PROX    C268535  11.915   9.384  12.671
  109PROX   H2168536  11.844   9.364  12.754
  109PROX    C368537  11.835   9.417  12.544
  109PROX   H3168538  11.778   9.510  12.564
  109PROX   H3268539  11.909   9.441  12.465
  109PROX   H3368540  11.755   9.343  12.521
  110PROX    O168541  12.005   9.492  12.694
  110PROX    C168542  12.044   9.502  12.829
  110PROX   H1168543  12.038   9.611  12.849
  110PROX   H1368544  11.979   9.448  12.901
  110PROX    C268545  12.191   9.460  12.848
  110PROX   H2168546  12.236   9.508  12.937
  110PROX    C368547  12.295   9.486  12.737
  110PROX   H3168548  12.236   9.469  12.645
  110PROX   H3268549  12.333   9.590  12.731
  110PROX   H3368550  12.384   9.425  12.762
  111PROX    O168551  12.193   9.319  12.883
  111PROX    C168552  12.301   9.262  12.960
  111PROX   H1168553  12.354   9.347  13.008
  111PROX   H1368554  12.258   9.199  13.040
  111PROX    C268555  12.393   9.171  12.872
  111PROX   H2168556  12.411   9.221  12.775
  111PROX    C368557  12.314   9.044  12.830
  111PROX   H3168558  12.280   8.986  12.919
  111PROX   H3268559  12.231   9.070  12.762
  111PROX   H3368560  12.376   8.966  12.780
  112PROX    O168561  12.515   9.144  12.944
  112PROX    C168562  12.629   9.129  12.864
  112PROX   H1168563  12.714   9.106  12.933
  112PROX   H1368564  12.604   9.050  12.790
  112PROX    C268565  12.689   9.259  12.799
  112PROX   H2168566  12.623   9.279  12.712
  112PROX    C368567  12.832   9.237  12.746
  112PROX   H3168568  12.863   9.324  12.684
  112PROX   H3268569  12.913   9.224  12.822
  112PROX   H3368570  12.841   9.147  12.682
  113PROX    O168571  12.675   9.369  12.886
  113PROX    C168572  12.662   9.491  12.811
  113PROX   H1168573  12.757   9.491  12.754
  113PROX   H1368574  12.574   9.497  12.745
  113PROX    C268575  12.656   9.619  12.903
  113PROX   H2168576  12.749   9.624  12.964
  113PROX    C368577  12.533   9.616  12.990
  113PROX   H3168578  12.519   9.518  13.041
  113PROX   H3268579  12.546   9.691  13.071
  113PROX   H3368580  12.442   9.638  12.929
  114PROX    O168581  12.633   9.730  12.815
  114PROX    C168582  12.744   9.776  12.735
  114PROX   H1168583  12.748   9.687  12.669
  114PROX   H1368584  12.706   9.863  12.677
  114PROX    C268585  12.863   9.794  12.825
  114PROX   H2168586  12.837   9.813  12.931
  114PROX    C368587  12.958   9.904  12.782
  114PROX   H3168588  12.903   9.999  12.804
  114PROX   H3268589  13.053   9.901  12.839
  114PROX   H3368590  12.963   9.899  12.671
  115PROX    O168591  12.949   9.686  12.807
  115PROX    C168592  13.022   9.653  12.922
  115PROX   H1168593  13.060   9.747  12.966
  115PROX   H1368594  12.955   9.601  12.994
  115PROX    C268595  13.141   9.562  12.891
  115PROX   H2168596  13.207   9.632  12.835
  115PROX    C368597  13.120   9.439  12.793
  115PROX   H3168598  13.073   9.480  12.701
  115PROX   H3268599  13.219   9.399  12.765
  115PROX   H3368600  13.044   9.364  12.826
  116PROX    O168601  13.216   9.536  13.007
  116PROX    C168602  13.171   9.428  13.091
  116PROX   H1168603  13.068   9.456  13.124
  116PROX   H1368604  13.153   9.337  13.030
  116PROX    C268605  13.274   9.386  13.196
  116PROX   H2168606  13.372   9.369  13.146
  116PROX    C368607  13.228   9.251  13.265
  116PROX   H3168608  13.120   9.250  13.293
  116PROX   H3268609  13.235   9.163  13.198
  116PROX   H3368610  13.285   9.241  13.360
  117PROX    O168611  13.294   9.489  13.295
  117PROX    C168612  13.365   9.608  13.249
  117PROX   H1168613  13.443   9.585  13.173
  117PROX   H1368614  13.289   9.671  13.197
  117PROX    C268615  13.423   9.696  13.358
  117PROX   H2168616  13.346   9.697  13.438
  117PROX    C368617  13.459   9.837  13.303
  117PROX   H3168618  13.514   9.898  13.378
  117PROX   H3268619  13.515   9.820  13.208
  117PROX   H3368620  13.369   9.884  13.260
  118PROX    O168621  13.550   9.653  13.404
  118PROX    C168622  13.549   9.565  13.518
  118PROX   H1168623  13.506   9.629  13.599
  118PROX   H1368624  13.489   9.474  13.498
  118PROX    C268625  13.694   9.516  13.543
  118PROX   H2168626  13.683   9.448  13.631
  118PROX    C368627  13.792   9.633  13.566
  118PROX   H3168628  13.776   9.667  13.670
  118PROX   H3268629  13.894   9.595  13.543
  118PROX   H3368630  13.767   9.718  13.499
  119PROX    O168631  13.731   9.426  13.434
  119PROX    C168632  13.683   9.291  13.443
  119PROX   H1168633  13.730   9.245  13.532
  119PROX   H1368634  13.572   9.289  13.445
  119PROX    C268635  13.729   9.212  13.315
  119PROX   H2168636  13.840   9.209  13.323
  119PROX    C368637  13.692   9.292  13.186
  119PROX   H3168638  13.715   9.236  13.093
  119PROX   H3268639  13.583   9.304  13.173
  119PROX   H3368640  13.741   9.392  13.183
  120PROX    O168641  13.680   9.075  13.321
  120PROX    C168642  13.542   9.057  13.287
  120PROX   H1168643  13.483   9.123  13.354
  120PROX   H1368644  13.516   9.087  13.183
  120PROX    C268645  13.493   8.907  13.313
  120PROX   H2168646  13.523   8.878  13.415
  120PROX    C368647  13.572   8.811  13.223
  120PROX   H3168648  13.564   8.838  13.116
  120PROX   H3268649  13.676   8.813  13.263
  120PROX   H3368650  13.539   8.705  13.222
  121PROX    O168651  13.352   8.900  13.295
  121PROX    C168652  13.305   8.765  13.265
  121PROX   H1168653  13.306   8.748  13.155
  121PROX   H1368654  13.366   8.684  13.309
  121PROX    C268655  13.155   8.747  13.307
  121PROX   H2168656  13.135   8.791  13.407
  121PROX    C368657  13.116   8.602  13.320
  121PROX   H3168658  13.147   8.561  13.221
  121PROX   H3268659  13.172   8.544  13.397
  121PROX   H3368660  13.006   8.602  13.333
  122PROX    O168661  13.062   8.801  13.212
  122PROX    C168662  13.017   8.929  13.242
  122PROX   H1168663  12.957   8.914  13.333
  122PROX   H1368664  13.106   8.993  13.263
  122PROX    C268665  12.931   8.978  13.131
  122PROX   H2168666  12.840   8.914  13.128
  122PROX    C368667  13.002   8.979  12.994
  122PROX   H3168668  13.014   8.874  12.960
  122PROX   H3268669  12.940   9.038  12.923
  122PROX   H3368670  13.098   9.034  12.998
  123PROX    O168671  12.895   9.116  13.152
  123PROX    C168672  12.831   9.145  13.280
  123PROX   H1168673  12.739   9.085  13.291
  123PROX   H1368674  12.905   9.130  13.362
  123PROX    C268675  12.790   9.296  13.280
  123PROX   H2168676  12.707   9.313  13.351
  123PROX    C368677  12.725   9.351  13.152
  123PROX   H3168678  12.670   9.447  13.158
  123PROX   H3268679  12.803   9.364  13.075
  123PROX   H3368680  12.654   9.281  13.102
  124PROX    O168681  12.893   9.382  13.318
  124PROX    C168682  12.853   9.510  13.356
  124PROX   H1168683  12.787   9.561  13.283
  124PROX   H1368684  12.808   9.499  13.456
  124PROX    C268685  12.981   9.594  13.373
  124PROX   H2168686  13.045   9.580  13.283
  124PROX    C368687  13.067   9.532  13.486
  124PROX   H3168688  13.153   9.601  13.498
  124PROX   H3268689  13.014   9.524  13.583
  124PROX   H3368690  13.096   9.428  13.461
  125PROX    O168691  12.946   9.731  13.388
  125PROX    C168692  12.950   9.795  13.264
  125PROX   H1168693  13.054   9.783  13.227
  125PROX   H1368694  12.894   9.743  13.184
  125PROX    C268695  12.904   9.936  13.273
  125PROX   H2168696  12.964   9.999  13.342
  125PROX    C368697  12.754   9.954  13.309
  125PROX   H3168698  12.695   9.907  13.227
  125PROX   H3268699  12.728   9.909  13.408
  125PROX   H3368700  12.734  10.062  13.326
  126PROX    O168701  12.927   9.989  13.139
  126PROX    C168702  12.986  10.122  13.139
  126PROX   H1168703  12.957  10.186  13.053
  126PROX   H1368704  12.963  10.170  13.237
  126PROX    C268705  13.147  10.107  13.137
  126PROX   H2168706  13.167  10.039  13.223
  126PROX    C368707  13.223  10.237  13.169
  126PROX   H3168708  13.200  10.318  13.096
  126PROX   H3268709  13.184  10.267  13.269
  126PROX   H3368710  13.333  10.222  13.181
  127PROX    O168711  13.182  10.045  13.014
  127PROX    C168712  13.308   9.987  13.018
  127PROX   H1168713  13.382  10.065  13.043
  127PROX   H1368714  13.294   9.901  13.087
  127PROX    C268715  13.359   9.936  12.880
  127PROX   H2168716  13.274   9.885  12.828
  127PROX    C368717  13.480   9.841  12.895
  127PROX   H3168718  13.511   9.794  12.799
  127PROX   H3268719  13.570   9.881  12.945
  127PROX   H3368720  13.435   9.763  12.960
  128PROX    O168721  13.405  10.043  12.794
  128PROX    C168722  13.295  10.125  12.763
  128PROX   H1168723  13.196  10.075  12.771
  128PROX   H1368724  13.286  10.213  12.831
  128PROX    C268725  13.311  10.195  12.627
  128PROX   H2168726  13.331  10.122  12.547
  128PROX    C368727  13.430  10.296  12.615
  128PROX   H3168728  13.529  10.253  12.640
  128PROX   H3268729  13.430  10.353  12.520
  128PROX   H3368730  13.421  10.379  12.688
  129PROX    O168731  13.195  10.278  12.616
  129PROX    C168732  13.076  10.215  12.584
  129PROX   H1168733  13.086  10.181  12.479
  129PROX   H1368734  13.057  10.120  12.639
  129PROX    C268735  12.962  10.309  12.612
  129PROX   H2168736  12.982  10.395  12.544
  129PROX    C368737  12.943  10.361  12.746
  129PROX   H3168738  12.875  10.449  12.736
  129PROX   H3268739  12.905  10.288  12.820
  129PROX   H3368740  13.035  10.401  12.795
  130PROX    O168741  12.835  10.245  12.575
  130PROX    C168742  12.828  10.204  12.438
  130PROX   H1168743  12.833  10.287  12.364
  130PROX   H1368744  12.899  10.122  12.415
  130PROX    C268745  12.680  10.152  12.412
  130PROX   H2168746  12.611  10.237  12.424
  130PROX    C368747  12.643  10.040  12.502
  130PROX   H3168748  12.691   9.946  12.467
  130PROX   H3268749  12.678  10.058  12.606
  130PROX   H3368750  12.532  10.030  12.504
  131PROX    O168751  12.670  10.103  12.277
  131PROX    C168752  12.534  10.091  12.243
  131PROX   H1168753  12.475  10.009  12.288
  131PROX   H1368754  12.476  10.182  12.269
  131PROX    C268755  12.509  10.086  12.089
  131PROX   H2168756  12.562   9.993  12.057
  131PROX    C368757  12.554  10.204  12.008
  131PROX   H3168758  12.649  10.247  12.047
  131PROX   H3268759  12.556  10.172  11.902
  131PROX   H3368760  12.473  10.277  12.027
  132PROX    O168761  12.374  10.071  12.071
  132PROX    C168762  12.337  10.022  11.943
  132PROX   H1168763  12.335  10.107  11.872
  132PROX   H1368764  12.414   9.954  11.900
  132PROX    C268765  12.207   9.940  11.942
  132PROX   H2168766  12.186   9.899  11.841
  132PROX    C368767  12.085  10.034  11.973
  132PROX   H3168768  12.102  10.100  12.061
  132PROX   H3268769  12.087  10.095  11.880
  132PROX   H3368770  11.982   9.991  11.973
  133PROX    O168771  12.225   9.833  12.035
  133PROX    C168772  12.137   9.724  12.009
  133PROX   H1168773  12.032   9.762  12.008
  133PROX   H1368774  12.162   9.680  11.910
  133PROX    C268775  12.152   9.618  12.114
  133PROX   H2168776  12.258   9.584  12.120
  133PROX    C368777  12.046   9.507  12.081
  133PROX   H3168778  12.092   9.417  12.036
  133PROX   H3268779  11.995   9.486  12.178
  133PROX   H3368780  11.962   9.538  12.015
  134PROX    O168781  12.107   9.673  12.243
  134PROX    C168782  12.156   9.604  12.365
  134PROX   H1168783  12.090   9.614  12.454
  134PROX   H1368784  12.163   9.496  12.344
  134PROX    C268785  12.296   9.651  12.425
  134PROX   H2168786  12.342   9.564  12.475
  134PROX    C368787  12.273   9.758  12.538
  134PROX   H3168788  12.219   9.710  12.622
  134PROX   H3268789  12.373   9.792  12.573
  134PROX   H3368790  12.220   9.849  12.502
  135PROX    O168791  12.379   9.692  12.319
  135PROX    C168792  12.518   9.684  12.363
  135PROX   H1168793  12.534   9.761  12.442
  135PROX   H1368794  12.544   9.586  12.407
  135PROX    C268795  12.612   9.720  12.237
  135PROX   H2168796  12.597   9.826  12.208
  135PROX    C368797  12.564   9.646  12.113
  135PROX   H3168798  12.638   9.650  12.030
  135PROX   H3268799  12.554   9.540  12.147
  135PROX   H3368800  12.469   9.690  12.077
  136PROX    O168801  12.751   9.680  12.252
  136PROX    C168802  12.836   9.771  12.327
  136PROX   H1168803  12.831   9.872  12.282
  136PROX   H1368804  12.786   9.774  12.427
  136PROX    C268805  12.966   9.699  12.338
  136PROX   H2168806  13.003   9.661  12.240
  136PROX    C368807  12.953   9.577  12.436
  136PROX   H3168808  13.045   9.514  12.440
  136PROX   H3268809  12.931   9.607  12.540
  136PROX   H3368810  12.864   9.517  12.406
  137PROX    O168811  13.061   9.787  12.390
  137PROX    C168812  13.200   9.764  12.346
  137PROX   H1168813  13.202   9.726  12.241
  137PROX   H1368814  13.239   9.867  12.341
  137PROX    C268815  13.278   9.681  12.451
  137PROX   H2168816  13.241   9.580  12.478
  137PROX    C368817  13.291   9.754  12.587
  137PROX   H3168818  13.195   9.764  12.642
  137PROX   H3268819  13.364   9.702  12.652
  137PROX   H3368820  13.323   9.860  12.576
  138PROX    O168821  13.412   9.669  12.404
  138PROX    C168822  13.487   9.568  12.473
  138PROX   H1168823  13.568   9.617  12.530
  138PROX   H1368824  13.424   9.515  12.547
  138PROX    C268825  13.538   9.453  12.374
  138PROX   H2168826  13.626   9.486  12.315
  138PROX    C368827  13.436   9.413  12.269
  138PROX   H3168828  13.346   9.368  12.315
  138PROX   H3268829  13.414   9.514  12.226
  138PROX   H3368830  13.482   9.349  12.191
  139PROX    O168831  13.573   9.336  12.449
  139PROX    C168832  13.611   9.225  12.366
  139PROX   H1168833  13.520   9.177  12.324
  139PROX   H1368834  13.673   9.254  12.279
  139PROX    C268835  13.697   9.123  12.447
  139PROX   H2168836  13.650   9.109  12.547
  139PROX    C368837  13.836   9.177  12.490
  139PROX   H3168838  13.892   9.198  12.396
  139PROX   H3268839  13.825   9.266  12.555
  139PROX   H3368840  13.900   9.105  12.545
  140PROX    O168841  13.708   9.004  12.373
  140PROX    C168842  13.621   8.905  12.419
  140PROX   H1168843  13.520   8.943  12.448
  140PROX   H1368844  13.603   8.835  12.335
  140PROX    C268845  13.677   8.819  12.534
  140PROX   H2168846  13.687   8.889  12.620
  140PROX    C368847  13.807   8.741  12.494
  140PROX   H3168848  13.809   8.647  12.554
  140PROX   H3268849  13.800   8.712  12.387
  140PROX   H3368850  13.901   8.799  12.505
  141PROX    O168851  13.589   8.710  12.564
  141PROX    C168852  13.586   8.679  12.700
  141PROX   H1168853  13.551   8.575  12.714
  141PROX   H1368854  13.691   8.695  12.731
  141PROX    C268855  13.488   8.768  12.778
  141PROX   H2168856  13.503   8.742  12.885
  141PROX    C368857  13.347   8.723  12.734
  141PROX   H3168858  13.345   8.711  12.624
  141PROX   H3268859  13.333   8.616  12.763
  141PROX   H3368860  13.265   8.788  12.772
  142PROX    O168861  13.491   8.908  12.746
  142PROX    C168862  13.426   8.997  12.841
  142PROX   H1168863  13.316   8.978  12.838
  142PROX   H1368864  13.476   8.966  12.935
  142PROX    C268865  13.448   9.147  12.800
  142PROX   H2168866  13.546   9.151  12.749
  142PROX    C368867  13.452   9.227  12.927
  142PROX   H3168868  13.539   9.185  12.981
  142PROX   H3268869  13.458   9.337  12.914
  142PROX   H3368870  13.358   9.210  12.983
  143PROX    O168871  13.339   9.201  12.728
  143PROX    C168872  13.331   9.145  12.592
  143PROX   H1168873  13.396   9.214  12.535
  143PROX   H1368874  13.372   9.043  12.574
  143PROX    C268875  13.186   9.140  12.543
  143PROX   H2168876  13.123   9.220  12.589
  143PROX    C368877  13.122   8.996  12.569
  143PROX   H3168878  13.118   8.983  12.680
  143PROX   H3268879  13.020   8.990  12.527
  143PROX   H3368880  13.185   8.919  12.520
  144PROX    O168881  13.196   9.181  12.408
  144PROX    C168882  13.068   9.179  12.336
  144PROX   H1168883  13.021   9.079  12.348
  144PROX   H1368884  13.006   9.262  12.376
  144PROX    C268885  13.103   9.210  12.186
  144PROX   H2168886  13.207   9.246  12.172
  144PROX    C368887  13.010   9.316  12.129
  144PROX   H3168888  13.028   9.411  12.184
  144PROX   H3268889  13.033   9.327  12.021
  144PROX   H3368890  12.904   9.282  12.139
  145PROX    O168891  13.092   9.093  12.109
  145PROX    C168892  13.220   9.012  12.107
  145PROX   H1168893  13.243   9.000  11.999
  145PROX   H1368894  13.298   9.055  12.173
  145PROX    C268895  13.190   8.866  12.155
  145PROX   H2168896  13.155   8.871  12.261
  145PROX    C368897  13.317   8.771  12.147
  145PROX   H3168898  13.291   8.663  12.141
  145PROX   H3268899  13.377   8.809  12.061
  145PROX   H3368900  13.386   8.777  12.234
  146PROX    O168901  13.099   8.800  12.071
  146PROX    C168902  12.963   8.842  12.089
  146PROX   H1168903  12.954   8.894  12.187
  146PROX   H1368904  12.932   8.908  12.006
  146PROX    C268905  12.875   8.712  12.070
  146PROX   H2168906  12.919   8.632  12.006
  146PROX    C368907  12.736   8.747  12.004
  146PROX   H3168908  12.688   8.648  11.986
  146PROX   H3268909  12.674   8.798  12.080
  146PROX   H3368910  12.750   8.818  11.919
  147PROX    O168911  12.838   8.650  12.193
  147PROX    C168912  12.944   8.567  12.240
  147PROX   H1168913  12.949   8.475  12.178
  147PROX   H1368914  13.041   8.612  12.211
  147PROX    C268915  12.933   8.528  12.395
  147PROX   H2168916  12.867   8.605  12.440
  147PROX    C368917  13.066   8.534  12.462
  147PROX   H3168918  13.093   8.638  12.489
  147PROX   H3268919  13.070   8.484  12.561
  147PROX   H3368920  13.147   8.484  12.406
  148PROX    O168921  12.887   8.398  12.412
  148PROX    C168922  12.753   8.377  12.366
  148PROX   H1168923  12.725   8.424  12.269
  148PROX   H1368924  12.754   8.268  12.343
  148PROX    C268925  12.647   8.397  12.475
  148PROX   H2168926  12.659   8.501  12.511
  148PROX    C368927  12.648   8.294  12.587
  148PROX   H3168928  12.575   8.310  12.669
  148PROX   H3268929  12.640   8.190  12.549
  148PROX   H3368930  12.747   8.296  12.637
  149PROX    O168931  12.519   8.367  12.417
  149PROX    C168932  12.462   8.475  12.352
  149PROX   H1168933  12.530   8.517  12.274
  149PROX   H1368934  12.379   8.434  12.291
  149PROX    C268935  12.404   8.586  12.442
  149PROX   H2168936  12.481   8.658  12.476
  149PROX    C368937  12.329   8.544  12.571
  149PROX   H3168938  12.243   8.476  12.548
  149PROX   H3268939  12.392   8.497  12.650
  149PROX   H3368940  12.277   8.632  12.615
  150PROX    O168941  12.312   8.650  12.354
  150PROX    C168942  12.370   8.751  12.274
  150PROX   H1168943  12.382   8.847  12.329
  150PROX   H1368944  12.472   8.715  12.246
  150PROX    C268945  12.286   8.757  12.149
  150PROX   H2168946  12.272   8.651  12.121
  150PROX    C368947  12.347   8.824  12.027
  150PROX   H3168948  12.339   8.932  12.053
  150PROX   H3268949  12.448   8.781  12.009
  150PROX   H3368950  12.291   8.813  11.932
  151PROX    O168951  12.166   8.815  12.175
  151PROX    C168952  12.056   8.721  12.207
  151PROX   H1168953  11.995   8.685  12.121
  151PROX   H1368954  12.090   8.636  12.269
  151PROX    C268955  11.956   8.784  12.309
  151PROX   H2168956  11.904   8.874  12.269
  151PROX    C368957  12.036   8.824  12.434
  151PROX   H3168958  11.966   8.892  12.488
  151PROX   H3268959  12.069   8.740  12.498
  151PROX   H3368960  12.124   8.883  12.400
  152PROX    O168961  11.853   8.691  12.336
  152PROX    C168962  11.739   8.740  12.411
  152PROX   H1168963  11.723   8.849  12.397
  152PROX   H1368964  11.647   8.696  12.368
  152PROX    C268965  11.746   8.706  12.560
  152PROX   H2168966  11.825   8.765  12.613
  152PROX    C368967  11.781   8.561  12.592
  152PROX   H3168968  11.703   8.499  12.543
  152PROX   H3268969  11.882   8.534  12.553
  152PROX   H3368970  11.784   8.542  12.701
  153PROX    O168971  11.620   8.736  12.619
  153PROX    C168972  11.610   8.731  12.753
  153PROX   H1168973  11.629   8.629  12.793
  153PROX   H1368974  11.689   8.800  12.791
  153PROX    C268975  11.468   8.768  12.800
  153PROX   H2168976  11.447   8.871  12.765
  153PROX    C368977  11.460   8.791  12.953
  153PROX   H3168978  11.365   8.841  12.981
  153PROX   H3268979  11.470   8.691  13.002
  153PROX   H3368980  11.545   8.851  12.992
  154PROX    O168981  11.359   8.670  12.778
  154PROX    C168982  11.313   8.684  12.642
  154PROX   H1168983  11.400   8.684  12.574
  154PROX   H1368984  11.247   8.594  12.633
  154PROX    C268985  11.231   8.813  12.618
  154PROX   H2168986  11.282   8.903  12.658
  154PROX    C368987  11.095   8.805  12.687
  154PROX   H3168988  11.101   8.791  12.797
  154PROX   H3268989  11.039   8.900  12.675
  154PROX   H3368990  11.028   8.727  12.646
  155PROX    O168991  11.212   8.835  12.477
  155PROX    C168992  11.327   8.906  12.420
  155PROX   H1168993  11.379   8.968  12.497
  155PROX   H1368994  11.398   8.828  12.386
  155PROX    C268995  11.292   8.993  12.300
  155PROX   H2168996  11.232   9.081  12.332
  155PROX    C368997  11.220   8.913  12.191
  155PROX   H3168998  11.121   8.872  12.218
  155PROX   H3268999  11.205   8.994  12.117
  155PROX   H3369000  11.288   8.840  12.142
  156PROX    O169001  11.409   9.045  12.238
  156PROX    C169002  11.467   9.158  12.300
  156PROX   H1169003  11.384   9.223  12.337
  156PROX   H1369004  11.533   9.119  12.380
  156PROX    C269005  11.554   9.229  12.192
  156PROX   H2169006  11.579   9.332  12.226
  156PROX    C369007  11.489   9.230  12.054
  156PROX   H3169008  11.548   9.263  11.965
  156PROX   H3269009  11.445   9.130  12.034
  156PROX   H3369010  11.414   9.311  12.060
  157PROX    O169011  11.675   9.155  12.187
  157PROX    C169012  11.775   9.212  12.099
  157PROX   H1169013  11.734   9.220  11.996
  157PROX   H1369014  11.799   9.318  12.122
  157PROX    C269015  11.903   9.115  12.095
  157PROX   H2169016  11.869   9.010  12.101
  157PROX    C369017  12.010   9.142  12.202
  157PROX   H3169018  11.958   9.163  12.297
  157PROX   H3269019  12.085   9.060  12.196
  157PROX   H3369020  12.068   9.233  12.177
  158PROX    O169021  11.972   9.129  11.968
  158PROX    C169022  11.900   9.085  11.851
  158PROX   H1169023  11.850   8.989  11.875
  158PROX   H1369024  11.827   9.166  11.827
  158PROX    C269025  12.000   9.063  11.734
  158PROX   H2169026  11.957   9.078  11.633
  158PROX    C369027  12.053   8.922  11.736
  158PROX   H3169028  12.135   8.911  11.662
  158PROX   H3269029  12.088   8.892  11.837
  158PROX   H3369030  11.973   8.849  11.711
  159PROX    O169031  12.104   9.162  11.730
  159PROX    C169032  12.228   9.131  11.803
  159PROX   H1169033  12.208   9.092  11.905
  159PROX   H1369034  12.280   9.050  11.746
  159PROX    C269035  12.312   9.257  11.816
  159PROX   H2169036  12.258   9.322  11.888
  159PROX    C369037  12.317   9.330  11.682
  159PROX   H3169038  12.370   9.428  11.689
  159PROX   H3269039  12.372   9.261  11.615
  159PROX   H3369040  12.223   9.340  11.623
  160PROX    O169041  12.440   9.229  11.874
  160PROX    C169042  12.501   9.341  11.937
  160PROX   H1169043  12.542   9.396  11.850
  160PROX   H1369044  12.425   9.399  11.994
  160PROX    C269045  12.611   9.299  12.037
  160PROX   H2169046  12.679   9.384  12.058
  160PROX    C369047  12.700   9.185  11.982
  160PROX   H3169048  12.762   9.224  11.897
  160PROX   H3269049  12.770   9.153  12.062
  160PROX   H3369050  12.635   9.102  11.946
  161PROX    O169051  12.567   9.272  12.169
  161PROX    C169052  12.459   9.182  12.179
  161PROX   H1169053  12.369   9.231  12.136
  161PROX   H1369054  12.483   9.100  12.108
  161PROX    C269055  12.426   9.137  12.319
  161PROX   H2169056  12.347   9.060  12.325
  161PROX    C369057  12.368   9.257  12.390
  161PROX   H3169058  12.433   9.346  12.379
  161PROX   H3269059  12.285   9.310  12.338
  161PROX   H3369060  12.354   9.239  12.498
  162PROX    O169061  12.542   9.076  12.371
  162PROX    C169062  12.533   9.014  12.502
  162PROX   H1169063  12.512   9.092  12.578
  162PROX   H1369064  12.447   8.944  12.503
  162PROX    C269065  12.666   8.941  12.533
  162PROX   H2169066  12.732   9.021  12.573
  162PROX    C369067  12.731   8.878  12.402
  162PROX   H3169068  12.676   8.798  12.349
  162PROX   H3269069  12.758   8.966  12.339
  162PROX   H3369070  12.826   8.834  12.438
  163PROX    O169071  12.634   8.838  12.630
  163PROX    C169072  12.744   8.780  12.702
  163PROX   H1169073  12.831   8.743  12.643
  163PROX   H1369074  12.791   8.864  12.757
  163PROX    C269075  12.694   8.670  12.796
  163PROX   H2169076  12.642   8.592  12.736
  163PROX    C369077  12.599   8.742  12.895
  163PROX   H3169078  12.555   8.675  12.971
  163PROX   H3269079  12.644   8.835  12.937
  163PROX   H3369080  12.514   8.792  12.844
  164PROX    O169081  12.793   8.614  12.869
  164PROX    C169082  12.854   8.498  12.807
  164PROX   H1169083  12.777   8.418  12.804
  164PROX   H1369084  12.864   8.526  12.699
  164PROX    C269085  12.980   8.469  12.879
  164PROX   H2169086  12.977   8.449  12.988
  164PROX    C369087  13.074   8.598  12.884
  164PROX   H3169088  13.031   8.681  12.943
  164PROX   H3269089  13.168   8.570  12.935
  164PROX   H3369090  13.102   8.629  12.781
  165PROX    O169091  13.048   8.363  12.809
  165PROX    C169092  13.021   8.237  12.863
  165PROX   H1169093  13.068   8.228  12.964
  165PROX   H1369094  12.912   8.227  12.878
  165PROX    C269095  13.069   8.131  12.759
  165PROX   H2169096  13.176   8.144  12.731
  165PROX    C369097  12.986   8.132  12.630
  165PROX   H3169098  12.877   8.135  12.651
  165PROX   H3269099  13.020   8.219  12.569
  165PROX   H3369100  13.009   8.038  12.576
  166ETHO    O169101  13.058   7.995  12.809
  166ETHO    C169102  13.162   7.965  12.898
  166ETHO   H1169103  13.172   8.032  12.986
  166ETHO   H1369104  13.257   7.954  12.841
  166ETHO    C269105  13.123   7.827  12.958
  166ETHO   H2169106  13.021   7.854  12.993
  166ETHO   H2369107  13.196   7.805  13.038
  167ETHO    O169108  13.119   7.714  12.877
  167ETHO    C169109  13.126   7.594  12.953
  167ETHO   H1169110  13.229   7.596  12.996
  167ETHO   H1369111  13.057   7.591  13.039
  167ETHO    C269112  13.105   7.476  12.863
  167ETHO   H2169113  13.123   7.386  12.926
  167ETHO   H2369114  13.180   7.484  12.781
  168ETHO    O169115  12.977   7.468  12.797
  168ETHO    C169116  12.870   7.471  12.883
  168ETHO   H1169117  12.873   7.571  12.931
  168ETHO   H1369118  12.871   7.398  12.966
  168ETHO    C269119  12.738   7.461  12.809
  168ETHO   H2169120  12.653   7.466  12.881
  168ETHO   H2369121  12.729   7.358  12.769
  169ETHO    O169122  12.730   7.555  12.704
  169ETHO    C169123  12.606   7.531  12.640
  169ETHO   H1169124  12.623   7.452  12.564
  169ETHO   H1369125  12.526   7.502  12.710
  169ETHO    C269126  12.546   7.665  12.586
  169ETHO   H2169127  12.553   7.746  12.662
  169ETHO   H2369128  12.439   7.641  12.565
  170ETHO    O169129  12.604   7.704  12.459
  170ETHO    C169130  12.559   7.831  12.411
  170ETHO   H1169131  12.603   7.838  12.309
  170ETHO   H1369132  12.601   7.910  12.476
  170ETHO    C269133  12.406   7.842  12.392
  170ETHO   H2169134  12.378   7.947  12.366
  170ETHO   H2369135  12.347   7.824  12.485
  171ETHO    O169136  12.355   7.765  12.285
  171ETHO    C169137  12.223   7.812  12.256
  171ETHO   H1169138  12.166   7.826  12.351
  171ETHO   H1369139  12.224   7.902  12.192
  171ETHO    C269140  12.130   7.702  12.198
  171ETHO   H2169141  12.025   7.737  12.211
  171ETHO   H2369142  12.131   7.603  12.248
  172ETHO    O169143  12.158   7.674  12.060
  172ETHO    C169144  12.051   7.608  11.997
  172ETHO   H1169145  11.960   7.670  12.010
  172ETHO   H1369146  12.023   7.507  12.037
  172ETHO    C269147  12.079   7.588  11.848
  172ETHO   H2169148  12.129   7.679  11.809
  172ETHO   H2369149  11.981   7.578  11.796
  173ETHO    O169150  12.154   7.474  11.810
  173ETHO    C169151  12.176   7.468  11.667
  173ETHO   H1169152  12.079   7.485  11.617
  173ETHO   H1369153  12.249   7.547  11.639
  173ETHO    C269154  12.247   7.341  11.628
  173ETHO   H2169155  12.265   7.358  11.520
  173ETHO   H2369156  12.342   7.338  11.686
  174ETHO    O169157  12.172   7.221  11.647
  174ETHO    C169158  12.253   7.116  11.591
  174ETHO   H1169159  12.297   7.144  11.493
  174ETHO   H1369160  12.343   7.117  11.656
  174ETHO    C269161  12.184   6.981  11.592
  174ETHO   H2169162  12.251   6.906  11.545
  174ETHO   H2369163  12.096   6.999  11.526
  175ETHO    O169164  12.140   6.938  11.718
  175ETHO    C169165  12.077   6.811  11.724
  175ETHO   H1169166  11.987   6.820  11.659
  175ETHO   H1369167  12.145   6.747  11.665
  175ETHO    C269168  12.046   6.739  11.862
  175ETHO   H2169169  11.986   6.647  11.851
  175ETHO   H2369170  11.985   6.813  11.919
  176ETHO    O169171  12.166   6.717  11.930
  176ETHO    C169172  12.150   6.698  12.064
  176ETHO   H1169173  12.243   6.651  12.101
  176ETHO   H1369174  12.144   6.796  12.117
  176ETHO    C269175  12.046   6.594  12.116
  176ETHO   H2169176  11.946   6.641  12.102
  176ETHO   H2369177  12.061   6.581  12.225
  177ETHO    O169178  12.053   6.471  12.039
  177ETHO    C169179  11.951   6.381  12.071
  177ETHO   H1169180  11.860   6.396  12.009
  177ETHO   H1369181  11.923   6.394  12.178
  177ETHO    C269182  12.005   6.246  12.040
  177ETHO   H2169183  11.936   6.175  12.090
  177ETHO   H2369184  12.104   6.231  12.088
  178ETHO    O169185  12.009   6.217  11.898
  178ETHO    C169186  12.103   6.116  11.861
  178ETHO   H1169187  12.201   6.162  11.839
  178ETHO   H1369188  12.112   6.041  11.942
  178ETHO    C269189  12.065   6.036  11.728
  178ETHO   H2169190  12.156   5.979  11.700
  178ETHO   H2369191  12.054   6.109  11.645
  179ETHO    O169192  11.957   5.950  11.748
  179ETHO    C169193  11.979   5.852  11.852
  179ETHO   H1169194  11.967   5.893  11.954
  179ETHO   H1369195  12.075   5.799  11.839
  179ETHO    C269196  11.868   5.747  11.859
  179ETHO   H2169197  11.766   5.787  11.870
  179ETHO   H2369198  11.882   5.682  11.948
  180ETHO    O169199  11.872   5.659  11.741
  180ETHO    C169200  11.760   5.579  11.750
  180ETHO   H1169201  11.676   5.643  11.783
  180ETHO   H1369202  11.724   5.556  11.647
  180ETHO    C269203  11.781   5.447  11.831
  180ETHO   H2169204  11.682   5.407  11.860
  180ETHO   H2369205  11.832   5.470  11.927
  181ETHO    O169206  11.856   5.354  11.755
  181ETHO    C169207  11.882   5.237  11.830
  181ETHO   H1169208  11.800   5.219  11.902
  181ETHO   H1369209  11.980   5.235  11.882
  181ETHO    C269210  11.888   5.114  11.731
  181ETHO   H2169211  11.944   5.023  11.762
  181ETHO   H2369212  11.931   5.145  11.633
  182ETHO    O169213  11.752   5.074  11.705
  182ETHO    C169214  11.750   4.970  11.613
  182ETHO   H1169215  11.831   4.980  11.538
  182ETHO   H1369216  11.775   4.881  11.673
  182ETHO    C269217  11.613   4.947  11.551
  182ETHO   H2169218  11.621   4.867  11.474
  182ETHO   H2369219  11.558   5.036  11.514
  183ETHO    O169220  11.543   4.878  11.654
  183ETHO    C169221  11.419   4.825  11.611
  183ETHO   H1169222  11.441   4.778  11.513
  183ETHO   H1369223  11.341   4.903  11.591
  183ETHO    C269224  11.371   4.732  11.725
  183ETHO   H2169225  11.305   4.652  11.684
  183ETHO   H2369226  11.294   4.791  11.780
  184ETHO    O169227  11.473   4.671  11.803
  184ETHO    C169228  11.553   4.574  11.731
  184ETHO   H1169229  11.495   4.519  11.653
  184ETHO   H1369230  11.622   4.636  11.670
  184ETHO    C269231  11.615   4.485  11.838
  184ETHO   H2169232  11.624   4.547  11.930
  184ETHO   H2369233  11.711   4.445  11.799
  185ETHO    O169234  11.534   4.378  11.869
  185ETHO    C169235  11.559   4.265  11.790
  185ETHO   H1169236  11.532   4.292  11.686
  185ETHO   H1369237  11.660   4.219  11.793
  185ETHO    C269238  11.467   4.149  11.841
  185ETHO   H2169239  11.439   4.084  11.756
  185ETHO   H2369240  11.375   4.203  11.875
  186ETHO    O169241  11.517   4.064  11.950
  186ETHO    C169242  11.419   3.972  12.002
  186ETHO   H1169243  11.335   4.040  12.031
  186ETHO   H1369244  11.386   3.906  11.919
  186ETHO    C269245  11.479   3.889  12.120
  186ETHO   H2169246  11.399   3.822  12.159
  186ETHO   H2369247  11.509   3.951  12.207
  187ETHO    O169248  11.582   3.815  12.064
  187ETHO    C169249  11.642   3.735  12.161
  187ETHO   H1169250  11.752   3.728  12.147
  187ETHO   H1369251  11.628   3.787  12.258
  187ETHO    C269252  11.585   3.588  12.167
  187ETHO   H2169253  11.481   3.596  12.204
  187ETHO   H2369254  11.636   3.539  12.253
  188ETHO    O169255  11.596   3.524  12.041
  188ETHO    C169256  11.562   3.383  12.042
  188ETHO   H1169257  11.580   3.327  12.136
  188ETHO   H1369258  11.619   3.324  11.968
  188ETHO    C269259  11.412   3.365  12.005
  188ETHO   H2169260  11.388   3.407  11.905
  188ETHO   H2369261  11.347   3.415  12.079
  189ETHO    O169262  11.370   3.232  11.997
  189ETHO    C169263  11.231   3.217  12.021
  189ETHO   H1169264  11.200   3.259  12.119
  189ETHO   H1369265  11.171   3.277  11.949
  189ETHO    C269266  11.205   3.062  12.005
  189ETHO   H2169267  11.099   3.031  12.001
  189ETHO   H2369268  11.272   3.014  12.080
  190ETHO    O169269  11.252   3.010  11.885
  190ETHO    C169270  11.230   2.872  11.885
  190ETHO   H1169271  11.123   2.845  11.902
  190ETHO   H1369272  11.291   2.812  11.956
  190ETHO    C269273  11.257   2.819  11.751
  190ETHO   H2169274  11.204   2.876  11.673
  190ETHO   H2369275  11.231   2.712  11.741
  191ETHO    O169276  11.397   2.816  11.729
  191ETHO    C169277  11.436   2.827  11.592
  191ETHO   H1169278  11.501   2.742  11.563
  191ETHO   H1369279  11.347   2.831  11.525
  191ETHO    C269280  11.518   2.958  11.561
  191ETHO   H2169281  11.522   2.953  11.450
  191ETHO   H2369282  11.619   2.954  11.608
  192ETHO    O169283  11.458   3.075  11.613
  192ETHO    C169284  11.338   3.123  11.549
  192ETHO   H1169285  11.274   3.043  11.506
  192ETHO   H1369286  11.358   3.185  11.459
  192ETHO    C269287  11.244   3.209  11.638
  192ETHO   H2169288  11.306   3.290  11.680
  192ETHO   H2369289  11.202   3.148  11.722
  193ETHO    O169290  11.141   3.269  11.559
  193ETHO    C169291  11.049   3.333  11.640
  193ETHO   H1169292  11.014   3.258  11.713
  193ETHO   H1369293  11.102   3.414  11.694
  193ETHO    C269294  10.930   3.401  11.566
  193ETHO   H2169295  10.970   3.461  11.481
  193ETHO   H2369296  10.885   3.473  11.638
  194ETHO    O169297  10.822   3.306  11.530
  194ETHO    C169298  10.705   3.373  11.478
  194ETHO   H1169299  10.695   3.477  11.515
  194ETHO   H1369300  10.619   3.323  11.527
  194ETHO    C269301  10.698   3.383  11.326
  194ETHO   H2169302  10.786   3.434  11.281
  194ETHO   H2369303  10.607   3.437  11.295
  195ETHO    O169304  10.683   3.260  11.262
  195ETHO    C169305  10.659   3.271  11.123
  195ETHO   H1169306  10.557   3.306  11.096
  195ETHO   H1369307  10.732   3.346  11.085
  195ETHO    C269308  10.680   3.139  11.057
  195ETHO   H2169309  10.663   3.163  10.949
  195ETHO   H2369310  10.613   3.056  11.088
  196ETHO    O169311  10.819   3.109  11.080
  196ETHO    C169312  10.850   3.000  10.991
  196ETHO   H1169313  10.773   2.919  10.992
  196ETHO   H1369314  10.873   3.039  10.890
  196ETHO    C269315  10.983   2.944  11.046
  196ETHO   H2169316  11.000   2.835  11.035
  196ETHO   H2369317  10.991   2.960  11.156
  197ETHO    O169318  11.091   3.009  10.978
  197ETHO    C169319  11.202   2.919  10.981
  197ETHO   H1169320  11.201   2.878  11.084
  197ETHO   H1369321  11.193   2.834  10.910
  197ETHO    C269322  11.344   2.984  10.967
  197ETHO   H2169323  11.421   2.912  11.003
  197ETHO   H2369324  11.348   3.079  11.023
  198ETHO    O169325  11.375   2.994  10.830
  198ETHO    C169326  11.478   3.086  10.804
  198ETHO   H1169327  11.456   3.181  10.857
  198ETHO   H1369328  11.570   3.036  10.841
  198ETHO    C269329  11.486   3.106  10.645
  198ETHO   H2169330  11.446   3.020  10.587
  198ETHO   H2369331  11.595   3.113  10.625
  199ETHO    O169332  11.421   3.233  10.613
  199ETHO    C169333  11.504   3.300  10.519
  199ETHO   H1169334  11.529   3.230  10.435
  199ETHO   H1369335  11.602   3.320  10.568
  199ETHO    C269336  11.450   3.431  10.472
  199ETHO   H2169337  11.344   3.427  10.442
  199ETHO   H2369338  11.507   3.464  10.382
  200ETHO    O169339  11.460   3.530  10.574
  200ETHO    C169340  11.373   3.637  10.550
  200ETHO   H1169341  11.366   3.665  10.442
  200ETHO   H1369342  11.275   3.600  10.585
  200ETHO    C269343  11.392   3.752  10.648
  200ETHO   H2169344  11.399   3.705  10.748
  200ETHO   H2369345  11.300   3.814  10.645
  201ETHO    O169346  11.509   3.832  10.621
  201ETHO    C169347  11.528   3.932  10.722
  201ETHO   H1169348  11.532   3.890  10.825
  201ETHO   H1369349  11.438   3.998  10.724
  201ETHO    C269350  11.654   4.019  10.698
  201ETHO   H2169351  11.738   3.948  10.710
  201ETHO   H2369352  11.662   4.093  10.780
  202ETHO    O169353  11.657   4.075  10.565
  202ETHO    C169354  11.781   4.141  10.539
  202ETHO   H1169355  11.862   4.073  10.572
  202ETHO   H1369356  11.791   4.157  10.430
  202ETHO    C269357  11.808   4.280  10.605
  202ETHO   H2169358  11.913   4.304  10.580
  202ETHO   H2369359  11.793   4.270  10.715
  203ETHO    O169360  11.727   4.377  10.538
  203ETHO    C169361  11.766   4.510  10.568
  203ETHO   H1169362  11.747   4.570  10.477
  203ETHO   H1369363  11.870   4.522  10.605
  203ETHO    C269364  11.689   4.581  10.675
  203ETHO   H2169365  11.581   4.582  10.649
  203ETHO   H2369366  11.724   4.687  10.678
  204ETHO    O169367  11.706   4.530  10.804
  204ETHO    C169368  11.596   4.447  10.838
  204ETHO   H1169369  11.499   4.499  10.852
  204ETHO   H1369370  11.573   4.361  10.771
  204ETHO    C269371  11.633   4.381  10.972
  204ETHO   H2169372  11.634   4.457  11.053
  204ETHO   H2369373  11.721   4.314  10.960
  205ETHO    O169374  11.530   4.284  11.000
  205ETHO    C169375  11.540   4.219  11.126
  205ETHO   H1169376  11.514   4.288  11.209
  205ETHO   H1369377  11.644   4.181  11.133
  205ETHO    C269378  11.458   4.088  11.133
  205ETHO   H2169379  11.503   4.026  11.213
  205ETHO   H2369380  11.457   4.040  11.033
  206ETHO    O169381  11.318   4.100  11.168
  206ETHO    C169382  11.250   3.981  11.190
  206ETHO   H1169383  11.264   3.914  11.103
  206ETHO   H1369384  11.305   3.923  11.268
  206ETHO    C269385  11.106   4.008  11.226
  206ETHO   H2169386  11.063   4.057  11.136
  206ETHO   H2369387  11.063   3.905  11.219
  207ETHO    O169388  11.075   4.097  11.337
  207ETHO    C169389  10.939   4.147  11.334
  207ETHO   H1169390  10.904   4.158  11.439
  207ETHO   H1369391  10.870   4.075  11.286
  207ETHO    C269392  10.928   4.276  11.258
  207ETHO   H2169393  10.821   4.302  11.245
  207ETHO   H2369394  10.981   4.280  11.160
  208ETHO    O169395  10.971   4.393  11.334
  208ETHO    C169396  10.948   4.514  11.262
  208ETHO   H1169397  10.981   4.499  11.157
  208ETHO   H1369398  10.845   4.553  11.272
  208ETHO    C269399  11.036   4.625  11.315
  208ETHO   H2169400  11.035   4.712  11.247
  208ETHO   H2369401  11.141   4.590  11.327
  209ETHO    O169402  11.003   4.667  11.452
  209ETHO    C169403  11.070   4.790  11.499
  209ETHO   H1169404  11.173   4.801  11.458
  209ETHO   H1369405  11.070   4.790  11.610
  209ETHO    C269406  10.982   4.909  11.456
  209ETHO   H2169407  10.946   4.901  11.351
  209ETHO   H2369408  11.037   5.005  11.466
  210ETHO    O169409  10.875   4.913  11.553
  210ETHO    C169410  10.783   5.015  11.527
  210ETHO   H1169411  10.782   5.020  11.416
  210ETHO   H1369412  10.683   4.993  11.570
  210ETHO    C269413  10.838   5.149  11.589
  210ETHO   H2169414  10.792   5.231  11.530
  210ETHO   H2369415  10.948   5.156  11.573
  211ETHO    O169416  10.802   5.173  11.723
  211ETHO    C169417  10.817   5.307  11.753
  211ETHO   H1169418  10.917   5.349  11.730
  211ETHO   H1369419  10.746   5.368  11.693
  211ETHO    C269420  10.789   5.316  11.908
  211ETHO   H2169421  10.807   5.421  11.938
  211ETHO   H2369422  10.858   5.259  11.974
  212ETHO    O169423  10.660   5.284  11.948
  212ETHO    C169424  10.642   5.299  12.089
  212ETHO   H1169425  10.676   5.401  12.120
  212ETHO   H1369426  10.538   5.291  12.128
  212ETHO    C269427  10.725   5.205  12.182
  212ETHO   H2169428  10.684   5.216  12.284
  212ETHO   H2369429  10.835   5.216  12.178
  213ETHO    O169430  10.693   5.071  12.149
  213ETHO    C169431  10.732   4.980  12.251
  213ETHO   H1169432  10.696   5.019  12.349
  213ETHO   H1369433  10.674   4.886  12.241
  213ETHO    C269434  10.883   4.959  12.271
  213ETHO   H2169435  10.916   4.960  12.165
  213ETHO   H2369436  10.909   4.859  12.311
  214ETHO    O169437  10.954   5.065  12.348
  214ETHO    C169438  11.067   5.006  12.415
  214ETHO   H1169439  11.128   4.944  12.346
  214ETHO   H1369440  11.037   4.933  12.493
  214ETHO    C269441  11.154   5.102  12.490
  214ETHO   H2169442  11.226   5.054  12.560
  214ETHO   H2369443  11.086   5.172  12.542
  215ETHO    O169444  11.218   5.171  12.390
  215ETHO    C169445  11.321   5.259  12.424
  215ETHO   H1169446  11.401   5.192  12.462
  215ETHO   H1369447  11.343   5.291  12.320
  215ETHO    C269448  11.288   5.373  12.521
  215ETHO   H2169449  11.377   5.424  12.563
  215ETHO   H2369450  11.230   5.318  12.598
  216ETHO    O169451  11.193   5.465  12.463
  216ETHO    C169452  11.138   5.550  12.558
  216ETHO   H1169453  11.215   5.608  12.613
  216ETHO   H1369454  11.080   5.499  12.637
  216ETHO    C269455  11.045   5.659  12.497
  216ETHO   H2169456  11.016   5.728  12.580
  216ETHO   H2369457  10.951   5.616  12.457
  217ETHO    O169458  11.119   5.721  12.392
  217ETHO    C169459  11.034   5.810  12.321
  217ETHO   H1169460  10.948   5.756  12.275
  217ETHO   H1369461  10.996   5.884  12.394
  217ETHO    C269462  11.107   5.894  12.213
  217ETHO   H2169463  11.120   5.842  12.116
  217ETHO   H2369464  11.202   5.920  12.264
  218ETHO    O169465  11.022   6.005  12.194
  218ETHO    C169466  11.090   6.126  12.162
  218ETHO   H1169467  11.146   6.118  12.066
  218ETHO   H1369468  11.155   6.156  12.247
  218ETHO    C269469  10.984   6.240  12.149
  218ETHO   H2169470  10.897   6.198  12.094
  218ETHO   H2369471  11.031   6.323  12.092
  219ETHO    O169472  10.929   6.296  12.270
  219ETHO    C169473  11.023   6.395  12.319
  219ETHO   H1169474  11.115   6.344  12.355
  219ETHO   H1369475  11.040   6.468  12.237
  219ETHO    C269476  10.972   6.468  12.439
  219ETHO   H2169477  11.039   6.556  12.455
  219ETHO   H2369478  10.961   6.408  12.532
  220ETHO    O169479  10.842   6.516  12.404
  220ETHO    C169480  10.800   6.629  12.485
  220ETHO   H1169481  10.880   6.705  12.476
  220ETHO   H1369482  10.800   6.603  12.594
  220ETHO    C269483  10.661   6.674  12.445
  220ETHO   H2169484  10.608   6.729  12.525
  220ETHO   H2369485  10.601   6.582  12.426
  221ETHO    O169486  10.653   6.750  12.325
  221ETHO    C169487  10.520   6.753  12.266
  221ETHO   H1169488  10.479   6.651  12.251
  221ETHO   H1369489  10.460   6.796  12.349
  221ETHO    C269490  10.511   6.828  12.141
  221ETHO   H2169491  10.416   6.798  12.093
  221ETHO   H2369492  10.594   6.817  12.068
  222ETHO    O169493  10.508   6.967  12.156
  222ETHO    C169494  10.474   7.030  12.036
  222ETHO   H1169495  10.495   6.964  11.949
  222ETHO   H1369496  10.365   7.052  12.034
  222ETHO    C269497  10.557   7.159  12.026
  222ETHO   H2169498  10.522   7.205  11.931
  222ETHO   H2369499  10.667   7.142  12.025
  223ETHO    O169500  10.509   7.252  12.130
  223ETHO    C169501  10.587   7.371  12.131
  223ETHO   H1169502  10.651   7.361  12.221
  223ETHO   H1369503  10.648   7.382  12.039
  223ETHO    C269504  10.497   7.490  12.149
  223ETHO   H2169505  10.415   7.505  12.076
  223ETHO   H2369506  10.565   7.577  12.140
  224ETHO    O169507  10.446   7.502  12.277
  224ETHO    C169508  10.384   7.627  12.308
  224ETHO   H1169509  10.457   7.711  12.309
  224ETHO   H1369510  10.311   7.649  12.228
  224ETHO    C269511  10.304   7.635  12.441
  224ETHO   H2169512  10.226   7.557  12.434
  224ETHO   H2369513  10.245   7.730  12.437
  225ETHO    O169514  10.388   7.625  12.559
  225ETHO    C169515  10.310   7.654  12.671
  225ETHO   H1169516  10.251   7.564  12.700
  225ETHO   H1369517  10.246   7.742  12.649
  225ETHO    C269518  10.405   7.666  12.796
  225ETHO   H2169519  10.465   7.573  12.804
  225ETHO   H2369520  10.341   7.662  12.886
  226ETHO    O169521  10.477   7.779  12.792
  226ETHO    C169522  10.588   7.772  12.885
  226ETHO   H1169523  10.646   7.678  12.885
  226ETHO   H1369524  10.660   7.850  12.853
  226ETHO    C269525  10.551   7.802  13.034
  226ETHO   H2169526  10.475   7.883  13.036
  226ETHO   H2369527  10.639   7.838  13.091
  227ETHO    O169528  10.497   7.686  13.095
  227ETHO    C169529  10.446   7.716  13.222
  227ETHO   H1169530  10.343   7.752  13.201
  227ETHO   H1369531  10.506   7.802  13.259
  227ETHO    C269532  10.445   7.614  13.344
  227ETHO   H2169533  10.441   7.660  13.444
  227ETHO   H2369534  10.547   7.568  13.344
  228ETHO    O169535  10.341   7.525  13.323
  228ETHO    C169536  10.346   7.429  13.428
  228ETHO   H1169537  10.445   7.423  13.477
  228ETHO   H1369538  10.268   7.445  13.506
  228ETHO    C269539  10.316   7.285  13.371
  228ETHO   H2169540  10.223   7.286  13.310
  228ETHO   H2369541  10.290   7.216  13.453
  229ETHO    O169542  10.422   7.231  13.291
  229ETHO    C169543  10.447   7.096  13.318
  229ETHO   H1169544  10.354   7.042  13.347
  229ETHO   H1369545  10.509   7.090  13.410
  229ETHO    C269546  10.527   7.022  13.211
  229ETHO   H2169547  10.497   7.062  13.111
  229ETHO   H2369548  10.518   6.912  13.217
  230ETHO    O169549  10.667   7.048  13.227
  230ETHO    C169550  10.742   6.977  13.125
  230ETHO   H1169551  10.751   6.872  13.160
  230ETHO   H1369552  10.690   6.974  13.026
  230ETHO    C269553  10.871   7.049  13.106
  230ETHO   H2169554  10.939   6.998  13.034
  230ETHO   H2369555  10.931   7.058  13.199
  231ETHO    O169556  10.845   7.183  13.064
  231ETHO    C169557  10.970   7.260  13.047
  231ETHO   H1169558  11.016   7.264  12.946
  231ETHO   H1369559  11.053   7.212  13.103
  231ETHO    C269560  10.956   7.396  13.106
  231ETHO   H2169561  10.886   7.468  13.058
  231ETHO   H2369562  11.055   7.446  13.100
  232ETHO    O169563  10.925   7.378  13.244
  232ETHO    C169564  10.793   7.420  13.271
  232ETHO   H1169565  10.774   7.530  13.270
  232ETHO   H1369566  10.729   7.381  13.189
  232ETHO    C269567  10.730   7.357  13.398
  232ETHO   H2169568  10.777   7.257  13.411
  232ETHO   H2369569  10.621   7.343  13.383
  233ETHO    O169570  10.762   7.436  13.512
  233ETHO    C169571  10.683   7.402  13.625
  233ETHO   H1169572  10.596   7.469  13.641
  233ETHO   H1369573  10.654   7.295  13.628
  233ETHO    C269574  10.758   7.420  13.758
  233ETHO   H2169575  10.690   7.405  13.845
  233ETHO   H2369576  10.805   7.520  13.754
  234ETHO    O169577  10.873   7.333  13.782
  234ETHO    C169578  10.836   7.198  13.788
  234ETHO   H1169579  10.735   7.197  13.835
  234ETHO   H1369580  10.824   7.161  13.684
  234ETHO    C269581  10.943   7.115  13.853
  234ETHO   H2169582  11.035   7.134  13.792
  234ETHO   H2369583  10.917   7.008  13.844
  235ETHO    O169584  10.952   7.156  13.990
  235ETHO    C169585  11.065   7.113  14.055
  235ETHO   H1169586  11.051   7.003  14.060
  235ETHO   H1369587  11.159   7.143  14.003
  235ETHO    C269588  11.074   7.172  14.197
  235ETHO   H2169589  11.105   7.279  14.193
  235ETHO   H2369590  11.159   7.124  14.249
  236ETHO    O169591  10.952   7.152  14.278
  236ETHO    C169592  10.917   7.011  14.298
  236ETHO   H1169593  11.004   6.965  14.349
  236ETHO   H1369594  10.894   6.957  14.204
  236ETHO    C269595  10.797   6.995  14.399
  236ETHO   H2169596  10.759   6.891  14.407
  236ETHO   H2369597  10.721   7.064  14.355
  237ETHO    O169598  10.825   7.039  14.532
  237ETHO    C169599  10.854   6.928  14.612
  237ETHO   H1169600  10.775   6.852  14.590
  237ETHO   H1369601  10.956   6.892  14.588
  237ETHO    C269602  10.835   6.965  14.758
  237ETHO   H2169603  10.728   6.984  14.781
  237ETHO   H2369604  10.886   7.062  14.779
  238ETHO    O169605  10.879   6.865  14.846
  238ETHO    C169606  11.020   6.846  14.843
  238ETHO   H1169607  11.072   6.944  14.827
  238ETHO   H1369608  11.046   6.779  14.758
  238ETHO    C269609  11.080   6.797  14.976
  238ETHO   H2169610  11.044   6.869  15.053
  238ETHO   H2369611  11.190   6.800  14.964
  239ETHO    O169612  11.037   6.660  15.001
  239ETHO    C169613  11.116   6.584  15.100
  239ETHO   H1169614  11.219   6.567  15.061
  239ETHO   H1369615  11.132   6.650  15.188
  239ETHO    C269616  11.049   6.449  15.130
  239ETHO   H2169617  11.026   6.383  15.044
  239ETHO   H2369618  11.117   6.398  15.201
  240ETHO    O169619  10.919   6.478  15.189
  240ETHO    C169620  10.856   6.357  15.244
  240ETHO   H1169621  10.932   6.311  15.311
  240ETHO   H1369622  10.835   6.285  15.162
  240ETHO    C269623  10.728   6.386  15.325
  240ETHO   H2169624  10.692   6.488  15.304
  240ETHO   H2369625  10.758   6.400  15.432
  241ETHO    O169626  10.630   6.282  15.314
  241ETHO    C169627  10.678   6.157  15.358
  241ETHO   H1169628  10.763   6.107  15.306
  241ETHO   H1369629  10.705   6.165  15.465
  241ETHO    C269630  10.555   6.057  15.343
  241ETHO   H2169631  10.466   6.105  15.390
  241ETHO   H2369632  10.568   5.958  15.391
  242ETHO    O169633  10.523   6.031  15.203
  242ETHO    C169634  10.405   6.101  15.164
  242ETHO   H1169635  10.413   6.208  15.191
  242ETHO   H1369636  10.328   6.056  15.230
  242ETHO    C269637  10.367   6.096  15.013
  242ETHO   H2169638  10.455   6.083  14.946
  242ETHO   H2369639  10.319   6.192  14.982
  243ETHO    O169640  10.294   5.982  15.006
  243ETHO    C169641  10.227   5.967  14.884
  243ETHO   H1169642  10.135   5.909  14.905
  243ETHO   H1369643  10.191   6.070  14.863
  243ETHO    C269644  10.318   5.912  14.773
  243ETHO   H2169645  10.362   5.814  14.799
  243ETHO   H2369646  10.404   5.980  14.754
  244ETHO    O169647  10.253   5.888  14.652
  244ETHO    C169648  10.157   5.782  14.667
  244ETHO   H1169649  10.053   5.811  14.693
  244ETHO   H1369650  10.188   5.707  14.743
  244ETHO    C269651  10.163   5.714  14.530
  244ETHO   H2169652  10.121   5.613  14.550
  244ETHO   H2369653  10.268   5.700  14.496
  245ETHO    O169654  10.090   5.775  14.430
  245ETHO    C169655  10.111   5.709  14.301
  245ETHO   H1169656  10.201   5.644  14.290
  245ETHO   H1369657  10.026   5.639  14.289
  245ETHO    C269658  10.123   5.818  14.191
  245ETHO   H2169659  10.068   5.902  14.238
  245ETHO   H2369660  10.082   5.784  14.093
  246ETHO    O169661  10.264   5.859  14.170
  246ETHO    C169662  10.278   5.949  14.059
  246ETHO   H1169663  10.227   6.039  14.100
  246ETHO   H1369664  10.220   5.912  13.972
  246ETHO    C269665  10.422   5.973  14.012
  246ETHO   H2169666  10.483   6.002  14.100
  246ETHO   H2369667  10.423   6.042  13.925
  247ETHO    O169668  10.468   5.857  13.946
  247ETHO    C169669  10.610   5.836  13.965
  247ETHO   H1169670  10.671   5.911  13.910
  247ETHO   H1369671  10.645   5.844  14.070
  247ETHO    C269672  10.636   5.690  13.910
  247ETHO   H2169673  10.740   5.654  13.929
  247ETHO   H2369674  10.570   5.621  13.966
  248ETHO    O169675  10.602   5.693  13.771
  248ETHO    C169676  10.619   5.560  13.707
  248ETHO   H1169677  10.729   5.553  13.688
  248ETHO   H1369678  10.609   5.470  13.771
  248ETHO    C269679  10.540   5.539  13.576
  248ETHO   H2169680  10.598   5.466  13.516
  248ETHO   H2369681  10.543   5.635  13.519
  249ETHO    O169682  10.402   5.511  13.603
  249ETHO    C169683  10.327   5.491  13.483
  249ETHO   H1169684  10.313   5.585  13.425
  249ETHO   H1369685  10.391   5.425  13.422
  249ETHO    C269686  10.194   5.438  13.522
  249ETHO   H2169687  10.122   5.462  13.441
  249ETHO   H2369688  10.152   5.492  13.609
  250ETHO    O169689  10.206   5.298  13.547
  250ETHO    C169690  10.078   5.237  13.570
  250ETHO   H1169691  10.021   5.292  13.648
  250ETHO   H1369692  10.030   5.220  13.472
  250ETHO    C269693  10.103   5.096  13.635
  250ETHO   H2169694  10.173   5.048  13.562
  250ETHO   H2369695  10.005   5.044  13.639
  251ETHO    O169696  10.166   5.095  13.761
  251ETHO    C169697  10.083   5.122  13.875
  251ETHO   H1169698  10.006   5.043  13.870
  251ETHO   H1369699  10.041   5.225  13.874
  251ETHO    C269700  10.161   5.105  14.014
  251ETHO   H2169701  10.205   5.003  14.021
  251ETHO   H2369702  10.087   5.114  14.096
  252ETHO    O169703  10.261   5.203  14.026
  252ETHO    C169704  10.357   5.174  14.130
  252ETHO   H1169705  10.294   5.119  14.202
  252ETHO   H1369706  10.438   5.110  14.090
  252ETHO    C269707  10.412   5.300  14.202
  252ETHO   H2169708  10.330   5.366  14.239
  252ETHO   H2369709  10.478   5.352  14.130
  253ETHO    O169710  10.503   5.269  14.306
  253ETHO    C169711  10.443   5.229  14.421
  253ETHO   H1169712  10.443   5.118  14.419
  253ETHO   H1369713  10.339   5.270  14.417
  253ETHO    C269714  10.515   5.284  14.542
  253ETHO   H2169715  10.624   5.262  14.539
  253ETHO   H2369716  10.492   5.233  14.639
  254ETHO    O169717  10.488   5.420  14.560
  254ETHO    C169718  10.558   5.465  14.676
  254ETHO   H1169719  10.499   5.429  14.764
  254ETHO   H1369720  10.661   5.425  14.674
  254ETHO    C269721  10.565   5.619  14.683
  254ETHO   H2169722  10.548   5.645  14.790
  254ETHO   H2369723  10.490   5.670  14.619
  255ETHO    O169724  10.697   5.664  14.666
  255ETHO    C169725  10.701   5.808  14.643
  255ETHO   H1169726  10.616   5.845  14.581
  255ETHO   H1369727  10.802   5.832  14.604
  255ETHO    C269728  10.685   5.881  14.776
  255ETHO   H2169729  10.624   5.829  14.854
  255ETHO   H2369730  10.635   5.979  14.760
  256ETHO    O169731  10.816   5.912  14.826
  256ETHO    C169732  10.827   6.016  14.926
  256ETHO   H1169733  10.730   6.019  14.979
  256ETHO   H1369734  10.900   5.982  15.002
  256ETHO    C269735  10.870   6.150  14.866
  256ETHO   H2169736  10.837   6.237  14.928
  256ETHO   H2369737  10.815   6.156  14.770
  257ETHO    O169738  11.004   6.167  14.830
  257ETHO    C169739  11.002   6.280  14.739
  257ETHO   H1169740  10.950   6.368  14.782
  257ETHO   H1369741  10.939   6.256  14.651
  257ETHO    C269742  11.148   6.303  14.686
  257ETHO   H2169743  11.135   6.378  14.604
  257ETHO   H2369744  11.199   6.213  14.645
  258ETHO    O169745  11.226   6.365  14.790
  258ETHO    C169746  11.326   6.455  14.733
  258ETHO   H1169747  11.288   6.516  14.649
  258ETHO   H1369748  11.345   6.539  14.804
  258ETHO    C269749  11.455   6.383  14.689
  258ETHO   H2169750  11.495   6.314  14.766
  258ETHO   H2369751  11.532   6.460  14.668
  259ETHO    O169752  11.437   6.299  14.581
  259ETHO    C169753  11.561   6.254  14.531
  259ETHO   H1169754  11.617   6.344  14.498
  259ETHO   H1369755  11.623   6.206  14.610
  259ETHO    C269756  11.564   6.163  14.406
  259ETHO   H2169757  11.668   6.146  14.370
  259ETHO   H2369758  11.504   6.216  14.329
  260ETHO    O169759  11.524   6.030  14.435
  260ETHO    C169760  11.529   5.950  14.320
  260ETHO   H1169761  11.484   6.003  14.233
  260ETHO   H1369762  11.637   5.937  14.298
  260ETHO    C269763  11.447   5.817  14.333
  260ETHO   H2169764  11.483   5.765  14.241
  260ETHO   H2369765  11.341   5.844  14.351
  261ETHO    O169766  11.480   5.742  14.445
  261ETHO    C169767  11.410   5.619  14.426
  261ETHO   H1169768  11.303   5.647  14.420
  261ETHO   H1369769  11.432   5.570  14.328
  261ETHO    C269770  11.416   5.525  14.551
  261ETHO   H2169771  11.336   5.452  14.530
  261ETHO   H2369772  11.384   5.583  14.640
  262ETHO    O169773  11.542   5.468  14.556
  262ETHO    C169774  11.566   5.411  14.681
  262ETHO   H1169775  11.657   5.348  14.671
  262ETHO   H1369776  11.477   5.353  14.714
  262ETHO    C269777  11.592   5.515  14.787
  262ETHO   H2169778  11.506   5.573  14.827
  262ETHO   H2369779  11.673   5.581  14.752
  263ETHO    O169780  11.649   5.449  14.902
  263ETHO    C169781  11.567   5.350  14.964
  263ETHO   H1169782  11.607   5.252  14.929
  263ETHO   H1369783  11.461   5.374  14.943
  263ETHO    C269784  11.592   5.366  15.116
  263ETHO   H2169785  11.702   5.357  15.130
  263ETHO   H2369786  11.530   5.282  15.155
  264ETHO    O169787  11.544   5.496  15.168
  264ETHO    C169788  11.561   5.505  15.313
  264ETHO   H1169789  11.530   5.407  15.355
  264ETHO   H1369790  11.487   5.571  15.364
  264ETHO    C269791  11.702   5.557  15.348
  264ETHO   H2169792  11.760   5.511  15.264
  264ETHO   H2369793  11.730   5.511  15.445
  265ETHO    O169794  11.702   5.695  15.343
  265ETHO    C169795  11.833   5.741  15.371
  265ETHO   H1169796  11.861   5.702  15.472
  265ETHO   H1369797  11.894   5.691  15.292
  265ETHO    C269798  11.842   5.894  15.369
  265ETHO   H2169799  11.801   5.946  15.280
  265ETHO   H2369800  11.951   5.916  15.371
  265ETHO    OZ69801  11.767   5.938  15.479
  265ETHO   HZ169802  11.809   6.023  15.493
  266PYR     C169803  12.470  13.672  12.395
  266PYR     C269804  12.352  13.629  12.462
  266PYR     C369805  12.365  13.585  12.590
  266PYR     C469806  12.482  13.580  12.659
  266PYR     C569807  12.598  13.622  12.603
  266PYR     C669808  12.592  13.662  12.463
  266PYR     C769809  12.715  13.692  12.400
  266PYR     C869810  12.716  13.728  12.259
  266PYR     C969811  12.591  13.737  12.190
  266PYR    C1069812  12.472  13.715  12.260
  266PYR    C1169813  12.843  13.682  12.475
  266PYR    C1269814  12.961  13.701  12.401
  266PYR    C1369815  12.954  13.739  12.267
  266PYR    C1469816  12.834  13.749  12.197
  266PYR    C1569817  12.716  13.619  12.673
  266PYR    C1669818  12.833  13.645  12.605
  266PYR     H169819  12.381  13.722  12.203
  266PYR     H269820  12.576  13.756  12.085
  266PYR     H369821  12.254  13.633  12.416
  266PYR     H469822  12.281  13.541  12.641
  266PYR     H569823  12.473  13.549  12.762
  266PYR     H669824  12.718  13.605  12.780
  266PYR     H769825  12.924  13.624  12.659
  266PYR     H869826  13.059  13.679  12.440
  266PYR     H969827  13.049  13.763  12.221
  266PYR    H1069828  12.839  13.776  12.092
  267PYR     C169829  12.220  13.520  13.012
  267PYR     C269830  12.338  13.540  13.085
  267PYR     C369831  12.436  13.431  13.086
  267PYR     C469832  12.414  13.317  13.023
  267PYR     C569833  12.295  13.291  12.951
  267PYR     C669834  12.198  13.397  12.945
  267PYR     C769835  12.077  13.375  12.866
  267PYR     C869836  11.980  13.476  12.859
  267PYR     C969837  12.003  13.601  12.920
  267PYR    C1069838  12.121  13.622  12.997
  267PYR    C1169839  12.063  13.254  12.799
  267PYR    C1269840  11.948  13.233  12.723
  267PYR    C1369841  11.846  13.323  12.723
  267PYR    C1469842  11.854  13.446  12.798
  267PYR    C1569843  12.275  13.171  12.881
  267PYR    C1669844  12.168  13.159  12.806
  267PYR     H169845  12.141  13.718  13.043
  267PYR     H269846  11.931  13.681  12.913
  267PYR     H369847  12.351  13.630  13.144
  267PYR     H469848  12.524  13.437  13.148
  267PYR     H569849  12.483  13.234  13.029
  267PYR     H669850  12.342  13.088  12.895
  267PYR     H769851  12.148  13.067  12.751
  267PYR     H869852  11.930  13.142  12.668
  267PYR     H969853  11.758  13.303  12.664
  267PYR    H1069854  11.782  13.522  12.774
  268PYR     C169855  12.564  13.085  11.610
  268PYR     C269856  12.455  13.166  11.630
  268PYR     C369857  12.452  13.301  11.590
  268PYR     C469858  12.565  13.349  11.529
  268PYR     C569859  12.682  13.276  11.511
  268PYR     C669860  12.679  13.139  11.544
  268PYR     C769861  12.796  13.053  11.528
  268PYR     C869862  12.788  12.917  11.550
  268PYR     C969863  12.672  12.863  11.611
  268PYR    C1069864  12.568  12.949  11.650
  268PYR    C1169865  12.901  13.115  11.466
  268PYR    C1269866  13.013  13.037  11.444
  268PYR    C1369867  13.017  12.896  11.455
  268PYR    C1469868  12.905  12.836  11.521
  268PYR    C1569869  12.796  13.330  11.460
  268PYR    C1669870  12.905  13.251  11.426
  268PYR     H169871  12.489  12.906  11.710
  268PYR     H269872  12.666  12.756  11.625
  268PYR     H369873  12.368  13.125  11.678
  268PYR     H469874  12.355  13.348  11.586
  268PYR     H569875  12.558  13.454  11.502
  268PYR     H669876  12.802  13.434  11.432
  268PYR     H769877  12.993  13.295  11.381
  268PYR     H869878  13.090  13.077  11.380
  268PYR     H969879  13.106  12.837  11.439
  268PYR    H1069880  12.917  12.731  11.543
  269PYR     C169881  13.380  12.786  13.077
  269PYR     C269882  13.517  12.798  13.044
  269PYR     C369883  13.599  12.861  13.140
  269PYR     C469884  13.543  12.908  13.262
  269PYR     C569885  13.412  12.892  13.290
  269PYR     C669886  13.323  12.833  13.198
  269PYR     C769887  13.187  12.805  13.231
  269PYR     C869888  13.102  12.736  13.139
  269PYR     C969889  13.162  12.687  13.018
  269PYR    C1069890  13.301  12.713  12.991
  269PYR    C1169891  13.134  12.861  13.351
  269PYR    C1269892  13.003  12.824  13.386
  269PYR    C1369893  12.922  12.759  13.298
  269PYR    C1469894  12.964  12.718  13.168
  269PYR    C1569895  13.354  12.946  13.406
  269PYR    C1669896  13.216  12.926  13.442
  269PYR     H169897  13.336  12.674  12.896
  269PYR     H269898  13.101  12.630  12.950
  269PYR     H369899  13.562  12.750  12.958
  269PYR     H469900  13.707  12.861  13.127
  269PYR     H569901  13.609  12.949  13.337
  269PYR     H669902  13.424  12.994  13.473
  269PYR     H769903  13.175  12.956  13.537
  269PYR     H869904  12.961  12.856  13.480
  269PYR     H969905  12.822  12.737  13.333
  269PYR    H1069906  12.898  12.661  13.104
  270PYR     C169907  11.599  12.359  12.291
  270PYR     C269908  11.570  12.240  12.222
  270PYR     C369909  11.616  12.223  12.093
  270PYR     C469910  11.691  12.323  12.031
  270PYR     C569911  11.728  12.439  12.100
  270PYR     C669912  11.673  12.466  12.228
  270PYR     C769913  11.700  12.590  12.291
  270PYR     C869914  11.641  12.611  12.418
  270PYR     C969915  11.572  12.505  12.487
  270PYR    C1069916  11.546  12.387  12.421
  270PYR    C1169917  11.767  12.692  12.224
  270PYR    C1269918  11.793  12.810  12.291
  270PYR    C1369919  11.731  12.838  12.418
  270PYR    C1469920  11.657  12.736  12.486
  270PYR    C1569921  11.800  12.540  12.037
  270PYR    C1669922  11.817  12.669  12.093
  270PYR     H169923  11.488  12.307  12.466
  270PYR     H269924  11.534  12.530  12.585
  270PYR     H369925  11.523  12.163  12.281
  270PYR     H469926  11.594  12.139  12.028
  270PYR     H569927  11.720  12.307  11.929
  270PYR     H669928  11.849  12.522  11.943
  270PYR     H769929  11.884  12.737  12.042
  270PYR     H869930  11.851  12.887  12.243
  270PYR     H969931  11.751  12.924  12.480
  270PYR    H1069932  11.627  12.744  12.589
  271PYR     C169933  13.394  12.312  12.121
  271PYR     C269934  13.360  12.263  12.243
  271PYR     C369935  13.332  12.131  12.264
  271PYR     C469936  13.330  12.038  12.153
  271PYR     C569937  13.358  12.079  12.022
  271PYR     C669938  13.384  12.219  12.009
  271PYR     C769939  13.431  12.263  11.881
  271PYR     C869940  13.473  12.399  11.866
  271PYR     C969941  13.470  12.485  11.969
  271PYR    C1069942  13.434  12.443  12.100
  271PYR    C1169943  13.441  12.173  11.776
  271PYR    C1269944  13.487  12.219  11.653
  271PYR    C1369945  13.507  12.358  11.629
  271PYR    C1469946  13.514  12.444  11.740
  271PYR    C1569947  13.355  11.993  11.914
  271PYR    C1669948  13.404  12.037  11.788
  271PYR     H169949  13.445  12.502  12.190
  271PYR     H269950  13.494  12.590  11.958
  271PYR     H369951  13.345  12.323  12.332
  271PYR     H469952  13.298  12.092  12.359
  271PYR     H569953  13.302  11.935  12.168
  271PYR     H669954  13.327  11.891  11.932
  271PYR     H769955  13.404  11.963  11.710
  271PYR     H869956  13.507  12.152  11.570
  271PYR     H969957  13.533  12.401  11.534
  271PYR    H1069958  13.541  12.547  11.723
  272PYR     C169959  12.624  11.920  12.994
  272PYR     C269960  12.764  11.909  13.018
  272PYR     C369961  12.825  11.922  13.142
  272PYR     C469962  12.741  11.935  13.254
  272PYR     C569963  12.603  11.957  13.240
  272PYR     C669964  12.540  11.946  13.111
  272PYR     C769965  12.404  11.963  13.099
  272PYR     C869966  12.339  11.940  12.972
  272PYR     C969967  12.421  11.921  12.855
  272PYR    C1069968  12.564  11.918  12.870
  272PYR    C1169969  12.325  11.998  13.216
  272PYR    C1269970  12.187  12.009  13.198
  272PYR    C1369971  12.126  11.987  13.079
  272PYR    C1469972  12.200  11.951  12.966
  272PYR    C1569973  12.520  11.976  13.354
  272PYR    C1669974  12.383  11.998  13.341
  272PYR     H169975  12.623  11.899  12.782
  272PYR     H269976  12.385  11.916  12.753
  272PYR     H369977  12.828  11.905  12.931
  272PYR     H469978  12.932  11.920  13.156
  272PYR     H569979  12.782  11.938  13.354
  272PYR     H669980  12.579  11.987  13.444
  272PYR     H769981  12.325  12.023  13.429
  272PYR     H869982  12.128  12.037  13.285
  272PYR     H969983  12.018  11.996  13.071
  272PYR    H1069984  12.156  11.944  12.868
  273PYR     C169985  12.816  11.656  12.525
  273PYR     C269986  12.873  11.566  12.615
  273PYR     C369987  12.830  11.436  12.635
  273PYR     C469988  12.715  11.393  12.563
  273PYR     C569989  12.637  11.491  12.499
  273PYR     C669990  12.689  11.627  12.477
  273PYR     C769991  12.611  11.723  12.399
  273PYR     C869992  12.679  11.844  12.363
  273PYR     C969993  12.807  11.871  12.410
  273PYR    C1069994  12.873  11.781  12.491
  273PYR    C1169995  12.485  11.690  12.349
  273PYR    C1269996  12.421  11.778  12.260
  273PYR    C1369997  12.479  11.904  12.223
  273PYR    C1469998  12.608  11.930  12.281
  273PYR    C1569999  12.516  11.460  12.443
  273PYR    C1670000  12.442  11.560  12.373
  273PYR     H170001  12.973  11.796  12.528
  273PYR     H270002  12.850  11.966  12.386
  273PYR     H370003  12.954  11.607  12.672
  273PYR     H470004  12.881  11.377  12.710
  273PYR     H570005  12.691  11.290  12.581
  273PYR     H670006  12.479  11.359  12.440
  273PYR     H770007  12.356  11.525  12.318
  273PYR     H870008  12.325  11.752  12.218
  273PYR     H970009  12.419  11.980  12.176
  273PYR    H1070010  12.648  12.029  12.267
  25.00000  25.00000  25.00000
