
 1536
    1TIP3   OH2    1   1.336   1.583   0.888  0.1910 -0.3183 -0.5328
    1TIP3    H1    2   1.399   1.553   0.953 -0.9817 -0.4598  0.5822
    1TIP3    H2    3   1.287   1.652   0.933 -2.0169 -1.8033 -0.5086
    2TIP3   OH2    4   2.010   1.314   1.665  0.1037 -0.4943  0.3865
    2TIP3    H1    5   2.066   1.287   1.592  0.2990 -0.9614  0.7046
    2TIP3    H2    6   2.058   1.288   1.743  0.4161  1.0033  0.7210
    3TIP3   OH2    7   2.228   0.646   1.662 -0.1142 -0.4277  0.1989
    3TIP3    H1    8   2.158   0.589   1.695  1.1518 -0.6801  2.6893
    3TIP3    H2    9   2.281   0.588   1.607 -1.9092 -0.1759 -1.9116
    4TIP3   OH2   10   0.645   2.336   0.377  0.4056 -0.2186 -0.4668
    4TIP3    H1   11   0.653   2.427   0.348  0.2359 -0.3897 -1.0829
    4TIP3    H2   12   0.709   2.289   0.324 -1.2364 -0.8430 -2.0085
    5TIP3   OH2   13   1.951   1.302   1.280  0.5631 -0.2845 -0.0155
    5TIP3    H1   14   1.890   1.232   1.301  0.4677  0.0801  0.9419
    5TIP3    H2   15   2.021   1.294   1.345  0.9718 -0.0039 -0.4115
    6TIP3   OH2   16   1.871   1.514   1.527 -0.4666 -0.4468  0.1528
    6TIP3    H1   17   1.920   1.441   1.563  0.1528 -0.5227 -0.8156
    6TIP3    H2   18   1.814   1.543   1.599  0.8801 -0.4507  1.2524
    7TIP3   OH2   19   1.433   0.206   2.188 -0.2549 -0.2096  0.0401
    7TIP3    H1   20   1.356   0.254   2.219 -0.1550  0.1791 -0.3122
    7TIP3    H2   21   1.506   0.243   2.238  0.1052  1.3331 -1.5529
    8TIP3   OH2   22   0.349   2.234   1.980 -0.1275 -0.7987 -0.0927
    8TIP3    H1   23   0.362   2.173   2.053 -0.9476 -0.7393  0.1168
    8TIP3    H2   24   0.292   2.187   1.920  0.2359 -0.6984 -0.5212
    9TIP3   OH2   25   0.321   2.468   1.836 -0.4409  0.8745  0.4669
    9TIP3    H1   26   0.227   2.479   1.823 -0.1406  0.8612 -2.3402
    9TIP3    H2   27   0.329   2.384   1.883 -1.7931  0.8658  0.7223
   10TIP3   OH2   28   1.799   1.729   1.853 -0.3238  0.1978  0.0551
   10TIP3    H1   29   1.745   1.701   1.780 -0.4216 -0.7533  0.4852
   10TIP3    H2   30   1.756   1.808   1.886 -1.1190 -0.2174  0.0243
   11TIP3   OH2   31   1.397   1.675   1.188 -0.1303  0.0188  0.5961
   11TIP3    H1   32   1.444   1.687   1.271 -0.9747  0.2693  1.0505
   11TIP3    H2   33   1.411   1.583   1.166  0.4611  0.0559  0.7919
   12TIP3   OH2   34   1.760   2.124   0.610 -0.6621 -0.3290 -0.0528
   12TIP3    H1   35   1.803   2.209   0.612 -0.7995 -0.2581  2.3545
   12TIP3    H2   36   1.831   2.061   0.623 -0.8632 -0.3981  0.7700
   13TIP3   OH2   37   0.387   0.934   0.777  0.0304 -0.2475 -0.0319
   13TIP3    H1   38   0.455   0.985   0.734 -1.6449  0.4191 -2.0683
   13TIP3    H2   39   0.378   0.976   0.863 -0.0492  1.8227 -0.9699
   14TIP3   OH2   40   1.713   0.723   0.485  0.0034  0.3771  0.2429
   14TIP3    H1   41   1.709   0.811   0.522 -0.9454  0.7002 -0.5911
   14TIP3    H2   42   1.727   0.737   0.392  0.6336 -0.3829  0.2119
   15TIP3   OH2   43   1.615   0.275   1.119 -0.0157 -0.7198 -0.3867
   15TIP3    H1   44   1.632   0.365   1.149 -0.1862 -1.0667  0.8244
   15TIP3    H2   45   1.701   0.244   1.090  0.0758 -0.2184 -0.6752
   16TIP3   OH2   46   1.889   2.508   1.059  0.0141 -0.1094  0.3061
   16TIP3    H1   47   1.816   2.461   1.099 -0.3835  0.3489  0.1253
   16TIP3    H2   48   1.954   2.441   1.041 -0.9711 -0.7872 -0.9374
   17TIP3   OH2   49   1.616   0.022   1.323 -0.0463  0.2177  0.4831
   17TIP3    H1   50   1.659   0.107   1.333  0.4198  0.0884 -0.3677
   17TIP3    H2   51   1.543   0.025   1.386 -0.5156  1.5507 -0.0842
   18TIP3   OH2   52   0.611   1.975   0.152 -0.1620 -0.0350  0.4063
   18TIP3    H1   53   0.519   1.994   0.171 -0.3966 -2.3504  2.1115
   18TIP3    H2   54   0.610   1.884   0.123  1.6418 -0.3194  1.1324
   19TIP3   OH2   55   2.330   1.260   0.892  0.2939  0.8538  0.6895
   19TIP3    H1   56   2.396   1.197   0.863  0.5553  1.3530  0.1739
   19TIP3    H2   57   2.381   1.334   0.924  0.0025  1.5397 -0.3619
   20TIP3   OH2   58   1.804   1.252   2.275  0.1565 -0.1987 -0.6380
   20TIP3    H1   59   1.834   1.162   2.288 -1.6321 -0.6215  0.8472
   20TIP3    H2   60   1.876   1.306   2.307  0.8349 -1.1040 -0.5956
   21TIP3   OH2   61   2.227   0.648   0.400 -0.4586 -0.2081 -0.3310
   21TIP3    H1   62   2.240   0.580   0.466 -1.7111 -0.1622 -0.0187
   21TIP3    H2   63   2.304   0.641   0.344 -0.8819 -2.3517 -0.7369
   22TIP3   OH2   64   0.703   1.503   0.672  0.4492  0.3736 -0.7271
   22TIP3    H1   65   0.673   1.540   0.755 -0.2226 -0.9419 -0.3606
   22TIP3    H2   66   0.798   1.498   0.681  0.3307 -0.3844  0.2438
   23TIP3   OH2   67   0.905   2.380   2.486 -0.0531 -0.4345  0.2767
   23TIP3    H1   68   0.859   2.343   2.411 -2.2068  0.2103  1.2012
   23TIP3    H2   69   0.897   2.314   2.554  2.5837 -1.3660 -0.1967
   24TIP3   OH2   70   2.227   1.768   2.162 -0.3075 -0.4507 -1.2492
   24TIP3    H1   71   2.274   1.845   2.132  0.5113 -0.2232  0.5033
   24TIP3    H2   72   2.285   1.695   2.140  0.0008 -0.3440 -0.8011
   25TIP3   OH2   73   1.982   1.963   0.665  0.6206  0.0353 -0.3330
   25TIP3    H1   74   2.078   1.965   0.662  0.7075 -0.1820  1.4527
   25TIP3    H2   75   1.958   1.883   0.619  1.2680  0.2311 -1.0401
   26TIP3   OH2   76   0.479   1.755   1.409 -0.3404 -0.2785 -0.4017
   26TIP3    H1   77   0.401   1.729   1.360 -1.1703  2.5994 -0.7834
   26TIP3    H2   78   0.445   1.801   1.486  0.9795 -0.4046  0.2828
   27TIP3   OH2   79   0.564   0.727   0.778  0.3058 -0.3022  0.1318
   27TIP3    H1   80   0.617   0.744   0.856  1.5174 -0.5561 -0.6075
   27TIP3    H2   81   0.505   0.802   0.773 -0.3182 -0.6466  1.6944
   28TIP3   OH2   82   0.930   2.433   1.435  0.1803 -0.6455 -0.7392
   28TIP3    H1   83   0.947   2.371   1.364  0.5655  1.2168 -2.3469
   28TIP3    H2   84   0.858   2.488   1.403  0.6913  0.5562  0.1038
   29TIP3   OH2   85   0.114   1.833   0.457  0.4481 -0.0815  0.2742
   29TIP3    H1   86   0.050   1.769   0.426  0.7502 -0.5435  0.5745
   29TIP3    H2   87   0.198   1.790   0.444  0.7938  0.9928 -1.2268
   30TIP3   OH2   88   1.140   2.142   0.741 -0.1020  0.0755  0.0531
   30TIP3    H1   89   1.110   2.215   0.794 -2.9428 -0.4291 -0.7181
   30TIP3    H2   90   1.195   2.090   0.801  1.0854  2.2084  0.9029
   31TIP3   OH2   91   0.134   1.400   0.733 -0.1441 -0.2690  0.3618
   31TIP3    H1   92   0.073   1.440   0.796 -0.0876  2.2931 -1.0963
   31TIP3    H2   93   0.077   1.353   0.672 -0.5443  0.5445  0.0920
   32TIP3   OH2   94   1.193   0.410   2.141 -0.4139  0.3538 -0.4296
   32TIP3    H1   95   1.198   0.370   2.055 -1.8464  0.6980 -0.6909
   32TIP3    H2   96   1.202   0.504   2.125 -2.0376  0.5368 -0.3729
   33TIP3   OH2   97   2.418   0.093   2.428 -0.2694  0.4097  0.3555
   33TIP3    H1   98   2.360   0.077   2.503  1.0314  0.9925  1.5390
   33TIP3    H2   99   2.506   0.075   2.462  0.4379  1.6600 -0.7289
   34TIP3   OH2  100   0.981   1.838   0.021  0.0940 -0.3660 -0.6032
   34TIP3    H1  101   1.002   1.766   0.081  0.0168 -1.2897 -1.6497
   34TIP3    H2  102   0.965   1.795  -0.063 -2.7391  0.5882 -0.6550
   35TIP3   OH2  103   2.025   1.067   2.120 -0.3844  0.4802  0.2064
   35TIP3    H1  104   1.976   1.056   2.201 -1.2398  0.0643 -0.3626
   35TIP3    H2  105   1.994   0.998   2.063  2.1213 -0.9429  0.3970
   36TIP3   OH2  106   2.284   1.420   2.446 -0.3977  0.0219 -0.1793
   36TIP3    H1  107   2.370   1.378   2.441 -0.0936  0.6986 -0.7336
   36TIP3    H2  108   2.300   1.511   2.423 -0.9893  0.5627  1.4076
   37TIP3   OH2  109   1.961   0.982   1.791 -0.3146  0.6467 -0.2441
   37TIP3    H1  110   1.924   0.927   1.722  0.3521 -0.8845  0.5683
   37TIP3    H2  111   1.935   0.939   1.873  3.0418 -0.4890  0.3938
   38TIP3   OH2  112   2.269   1.906   0.570  0.7783 -0.0058 -0.0664
   38TIP3    H1  113   2.349   1.940   0.610  0.1086 -0.3720  1.7076
   38TIP3    H2  114   2.290   1.816   0.545  1.1001  0.0873 -0.1254
   39TIP3   OH2  115   1.846   0.308   1.804  0.3908 -0.6039  0.4076
   39TIP3    H1  116   1.757   0.274   1.801 -0.6509  1.9277  0.5801
   39TIP3    H2  117   1.883   0.271   1.884 -0.9670 -0.6588  1.0344
   40TIP3   OH2  118   1.262   2.367   1.878  0.2588  0.2275  0.1912
   40TIP3    H1  119   1.200   2.304   1.841  0.0185 -0.1187  1.1420
   40TIP3    H2  120   1.327   2.314   1.924  0.4864  0.6403  0.3625
   41TIP3   OH2  121   1.773   0.930   1.147 -0.0245 -0.4050  0.7934
   41TIP3    H1  122   1.746   1.010   1.191 -0.8491  0.0441 -0.5075
   41TIP3    H2  123   1.868   0.927   1.160  0.1525  1.2397  0.1354
   42TIP3   OH2  124   1.572   0.761   1.059 -0.2386 -0.1191 -0.2808
   42TIP3    H1  125   1.625   0.824   1.109  0.5584 -0.2874 -0.8983
   42TIP3    H2  126   1.508   0.816   1.012 -0.1389  0.1460 -0.1109
   43TIP3   OH2  127   0.878   1.008   1.880  0.0019  0.1712 -0.0800
   43TIP3    H1  128   0.819   0.979   1.949  1.4259  0.2874  1.2544
   43TIP3    H2  129   0.865   1.103   1.874  1.6368  0.5799  1.8642
   44TIP3   OH2  130   0.348   0.135   2.075  0.3720 -0.5748  0.2793
   44TIP3    H1  131   0.344   0.078   2.152  1.5349 -1.8253 -0.5315
   44TIP3    H2  132   0.366   0.076   2.002  1.6827  0.8070 -0.5988
   45TIP3   OH2  133   1.291   1.519   2.249  0.2496 -0.4128  0.2233
   45TIP3    H1  134   1.327   1.430   2.240  1.9630  0.4043 -1.7555
   45TIP3    H2  135   1.343   1.572   2.189 -2.1270  1.5651 -0.2358
   46TIP3   OH2  136   1.221   2.270   0.337 -0.0031 -0.1864  0.4483
   46TIP3    H1  137   1.184   2.356   0.355 -0.7201 -0.4668  0.3762
   46TIP3    H2  138   1.194   2.250   0.247  1.8653  0.3573 -0.2698
   47TIP3   OH2  139   0.825   0.446   0.499  0.1535 -0.4848  0.0924
   47TIP3    H1  140   0.863   0.454   0.412  2.1050  1.5986  0.9950
   47TIP3    H2  141   0.781   0.529   0.514  0.7104 -0.3890  1.4065
   48TIP3   OH2  142   0.436   1.450   0.582  0.0961 -0.0365  0.6994
   48TIP3    H1  143   0.514   1.464   0.635  0.0343 -1.1309  1.0947
   48TIP3    H2  144   0.407   1.361   0.604 -0.8049  0.0621 -0.0285
   49TIP3   OH2  145  -0.032   0.186   0.710 -0.4612  0.2060 -0.3681
   49TIP3    H1  146  -0.016   0.100   0.671 -2.2823  1.0869 -3.4000
   49TIP3    H2  147   0.050   0.234   0.696  0.3817 -0.7901  0.8677
   50TIP3   OH2  148   1.508   2.028   0.802 -0.0164 -0.6549  0.4924
   50TIP3    H1  149   1.536   1.939   0.825 -0.0174 -1.3980 -2.0558
   50TIP3    H2  150   1.585   2.068   0.762 -1.0089 -0.8483 -1.7308
   51TIP3   OH2  151   0.266   1.158   0.563 -0.4791  0.3758 -0.3141
   51TIP3    H1  152   0.180   1.186   0.531 -0.9448 -1.0617 -0.3540
   51TIP3    H2  153   0.277   1.069   0.529  1.5141  0.9086 -1.2597
   52TIP3   OH2  154   1.937   1.511   0.098  0.7520  0.7322  0.2825
   52TIP3    H1  155   1.931   1.455   0.175 -1.7288 -1.4923 -1.3755
   52TIP3    H2  156   1.974   1.455   0.030  0.2069  1.7714 -0.9040
   53TIP3   OH2  157   0.857   1.911   0.346 -0.1948  0.0855 -0.5444
   53TIP3    H1  158   0.923   1.871   0.290  0.2261 -0.2812  0.1888
   53TIP3    H2  159   0.907   1.964   0.409 -0.5130 -0.8861  0.5690
   54TIP3   OH2  160   0.365   2.325   0.286  0.1919  0.1196  0.0884
   54TIP3    H1  161   0.447   2.276   0.291  0.6457  0.9065  0.5710
   54TIP3    H2  162   0.348   2.332   0.192 -0.2253 -1.4826  0.0164
   55TIP3   OH2  163   2.151   1.612   0.380 -0.1143 -0.4042 -0.1586
   55TIP3    H1  164   2.116   1.524   0.362 -0.0683 -0.3072 -0.7363
   55TIP3    H2  165   2.235   1.614   0.335  0.5870 -0.5799  1.0970
   56TIP3   OH2  166   1.553   0.989   1.908 -0.2099 -0.1614  0.0888
   56TIP3    H1  167   1.637   1.030   1.924 -0.5777  0.7374 -0.2657
   56TIP3    H2  168   1.555   0.909   1.962  0.5285  0.2802  0.7363
   57TIP3   OH2  169   0.063   0.489   1.792 -0.1066 -0.4501  0.1525
   57TIP3    H1  170   0.079   0.462   1.702 -3.3219  1.9066 -1.3192
   57TIP3    H2  171  -0.022   0.451   1.814 -0.1747  0.4213  1.5336
   58TIP3   OH2  172   1.448   0.167   1.926  0.3137  0.1001 -0.2319
   58TIP3    H1  173   1.451   0.174   2.022 -0.7416 -1.3329 -0.0592
   58TIP3    H2  174   1.373   0.110   1.909  0.4882  0.3336 -1.9286
   59TIP3   OH2  175   1.277   1.443   0.527  0.6580  0.0050 -0.1613
   59TIP3    H1  176   1.235   1.440   0.613  0.3947  0.2812 -0.2740
   59TIP3    H2  177   1.339   1.516   0.533 -1.4788  2.0740 -1.1035
   60TIP3   OH2  178   1.910   0.443   0.494  0.2403  0.7261 -0.2851
   60TIP3    H1  179   1.842   0.436   0.561 -1.4651 -2.5112 -2.1054
   60TIP3    H2  180   1.992   0.439   0.543 -0.8655  1.4914  1.7593
   61TIP3   OH2  181   1.841   1.700   2.133  0.0396  0.7833  0.0611
   61TIP3    H1  182   1.898   1.632   2.166 -0.5831 -0.0772 -0.5913
   61TIP3    H2  183   1.845   1.692   2.038 -1.1443  0.7077 -0.0039
   62TIP3   OH2  184   0.165   1.775   1.991 -0.1174 -0.8249  0.4683
   62TIP3    H1  185   0.088   1.806   2.038 -0.3841  0.3801 -0.6937
   62TIP3    H2  186   0.202   1.854   1.951  0.8825 -1.5978 -0.1944
   63TIP3   OH2  187   0.858   1.423   2.194 -0.8060  0.2178  0.0900
   63TIP3    H1  188   0.835   1.474   2.117 -2.0030  0.4268  0.5591
   63TIP3    H2  189   0.813   1.340   2.182 -0.9162  0.2142  0.5030
   64TIP3   OH2  190   2.262   0.994   1.069  0.1768  0.5618 -0.3533
   64TIP3    H1  191   2.250   0.961   0.980  0.7806 -0.8076  0.0482
   64TIP3    H2  192   2.343   1.046   1.065  1.0328 -0.7368 -0.2960
   65TIP3   OH2  193   0.637   1.596   0.211  0.3943  0.6521 -0.3657
   65TIP3    H1  194   0.610   1.632   0.296  0.2938 -2.7940  1.2088
   65TIP3    H2  195   0.732   1.600   0.212  0.4608 -0.7437  0.6109
   66TIP3   OH2  196   2.393   0.903   1.801 -0.1844  0.1499  0.0985
   66TIP3    H1  197   2.414   0.865   1.716  3.6261  1.1381  0.4057
   66TIP3    H2  198   2.379   0.828   1.859  0.7907 -0.6457 -0.6649
   67TIP3   OH2  199   2.029   0.865   0.742  0.4826 -0.2221  0.4814
   67TIP3    H1  200   1.951   0.812   0.761 -0.2643  1.3478  2.0717
   67TIP3    H2  201   2.024   0.882   0.648  1.8461 -4.5169 -0.6014
   68TIP3   OH2  202   1.075   0.106   1.158 -0.1975 -0.2865 -0.6642
   68TIP3    H1  203   1.159   0.118   1.114  1.4147 -0.7868  2.1102
   68TIP3    H2  204   1.088   0.033   1.217 -2.3537  0.1146  0.4113
   69TIP3   OH2  205   1.651   0.164   0.600  0.7455  0.2970 -0.3544
   69TIP3    H1  206   1.660   0.100   0.671 -0.2057 -0.5115 -0.9318
   69TIP3    H2  207   1.718   0.138   0.536  0.0221 -0.4654 -0.8225
   70TIP3   OH2  208   0.032   1.998   0.632  0.5764  0.7323 -0.6146
   70TIP3    H1  209   0.062   1.951   0.555  0.6566  4.5394 -3.1727
   70TIP3    H2  210   0.107   1.997   0.692  1.3938 -0.3079 -1.6184
   71TIP3   OH2  211   0.935   2.428   0.579 -0.1147 -0.2248 -0.0013
   71TIP3    H1  212   0.961   2.444   0.488  0.6554  3.5888  0.7122
   71TIP3    H2  213   1.015   2.441   0.629 -0.6823 -1.6100  1.3326
   72TIP3   OH2  214   1.207   1.453   2.509  0.7450  0.4478 -0.4692
   72TIP3    H1  215   1.179   1.369   2.473  0.2860  0.7711 -0.8807
   72TIP3    H2  216   1.244   1.500   2.435 -1.4767  1.6691 -0.8780
   73TIP3   OH2  217   1.788   1.149   1.964 -0.1025  0.3845 -0.1255
   73TIP3    H1  218   1.728   1.212   2.006  0.8285  1.4861 -0.4057
   73TIP3    H2  219   1.874   1.191   1.970  0.1026  0.5389 -3.0235
   74TIP3   OH2  220   1.649   1.320   2.516 -0.6024 -0.2240 -0.7851
   74TIP3    H1  221   1.583   1.254   2.496 -0.2836 -0.5193 -0.8716
   74TIP3    H2  222   1.676   1.354   2.431 -1.7421  0.9979 -0.6892
   75TIP3   OH2  223   0.553   0.493   1.647 -0.0016  0.3073  0.0861
   75TIP3    H1  224   0.567   0.582   1.681 -2.7434  0.7863  0.2130
   75TIP3    H2  225   0.597   0.436   1.710  0.9108  1.5068  0.5768
   76TIP3   OH2  226   1.282   0.299   0.888  0.2228  0.3258  0.3315
   76TIP3    H1  227   1.300   0.275   0.797  1.3482  0.6544  0.4439
   76TIP3    H2  228   1.207   0.358   0.883 -0.1847 -0.2459 -0.3107
   77TIP3   OH2  229   0.414   1.828   1.841  1.0215 -0.1683 -0.3884
   77TIP3    H1  230   0.501   1.838   1.803  0.6059 -0.3564 -1.4183
   77TIP3    H2  231   0.426   1.764   1.911  1.8343  0.3038 -0.0815
   78TIP3   OH2  232   0.246   0.249   1.749 -1.0091  0.0320 -0.0564
   78TIP3    H1  233   0.271   0.242   1.842  2.0070 -1.1314 -0.8311
   78TIP3    H2  234   0.254   0.342   1.729  0.8144 -0.0144  0.2969
   79TIP3   OH2  235   0.556   1.505   1.553  0.7282 -0.2817  0.5562
   79TIP3    H1  236   0.525   1.576   1.498  2.0383 -0.0479  0.1030
   79TIP3    H2  237   0.623   1.544   1.608  1.3208 -1.1172  0.4417
   80TIP3   OH2  238   0.649   0.336   1.854 -0.6510 -0.2092 -0.4673
   80TIP3    H1  239   0.606   0.335   1.940 -0.5741  1.1513 -0.3872
   80TIP3    H2  240   0.646   0.245   1.825 -2.7326 -0.3411 -0.0313
   81TIP3   OH2  241   1.730   0.517   1.988  0.0575  0.2421 -0.4898
   81TIP3    H1  242   1.726   0.489   2.079  1.2015  0.6214 -0.3035
   81TIP3    H2  243   1.787   0.453   1.945 -0.8002 -0.1648 -1.0310
   82TIP3   OH2  244   0.372   1.125   1.919 -0.5144 -0.0002 -0.1249
   82TIP3    H1  245   0.314   1.090   1.851 -1.0427 -0.1772  0.4072
   82TIP3    H2  246   0.441   1.059   1.927  0.3062  0.6478 -1.4151
   83TIP3   OH2  247   1.060   1.789   1.646  0.6893 -0.0484  0.6417
   83TIP3    H1  248   1.081   1.839   1.567  0.3263 -0.0492  0.5432
   83TIP3    H2  249   1.058   1.698   1.617  1.1089 -0.1008  0.7699
   84TIP3   OH2  250   1.663   2.418   2.070  0.2341  0.1838  0.2679
   84TIP3    H1  251   1.586   2.401   2.124 -0.7756 -1.0958 -1.4641
   84TIP3    H2  252   1.708   2.334   2.066 -2.0493 -1.1667 -4.2308
   85TIP3   OH2  253   0.488   0.277   1.487 -0.0498  0.4937  0.6392
   85TIP3    H1  254   0.509   0.219   1.559 -0.9389  0.5967  0.9943
   85TIP3    H2  255   0.510   0.365   1.519 -1.4068  0.6520  1.1827
   86TIP3   OH2  256   0.849   1.939   1.846  0.7253  0.2921  0.5465
   86TIP3    H1  257   0.842   1.861   1.901  0.4933  0.6439  1.0243
   86TIP3    H2  258   0.881   1.907   1.762  0.3505 -0.3568  0.6466
   87TIP3   OH2  259   1.418   2.466   1.508  0.1674 -0.5196 -0.2301
   87TIP3    H1  260   1.409   2.546   1.560  2.5528 -0.1604 -0.2863
   87TIP3    H2  261   1.397   2.395   1.569  4.2730 -0.2260  1.8732
   88TIP3   OH2  262   0.743   0.603   1.434  0.3891  0.4272 -0.2511
   88TIP3    H1  263   0.724   0.682   1.384  1.5157  0.4296 -0.6980
   88TIP3    H2  264   0.669   0.595   1.496  0.1161  1.6452 -0.4049
   89TIP3   OH2  265   2.058   2.116   2.066  0.1756  0.7963 -0.4477
   89TIP3    H1  266   2.043   2.055   2.138 -1.1315  1.0443 -0.4865
   89TIP3    H2  267   2.093   2.062   1.995  0.7206  0.4180  0.0984
   90TIP3   OH2  268   0.840   2.243   0.764  0.0304  0.0551  0.2159
   90TIP3    H1  269   0.877   2.269   0.679  0.8815 -4.0793 -0.8998
   90TIP3    H2  270   0.751   2.277   0.763  0.2132  0.6237 -2.0687
   91TIP3   OH2  271   2.366   0.730   1.996 -0.3940  0.6824 -0.1280
   91TIP3    H1  272   2.453   0.693   2.010 -0.8161  0.4842  2.2586
   91TIP3    H2  273   2.315   0.659   1.957 -0.3366 -0.2722  1.4686
   92TIP3   OH2  274   1.873   2.188   1.484  0.0448  0.3885 -0.1209
   92TIP3    H1  275   1.895   2.112   1.537  2.6783 -1.1612 -3.0876
   92TIP3    H2  276   1.899   2.263   1.538  0.5169 -0.9451  1.6031
   93TIP3   OH2  277   0.629   0.257   0.520  0.6871  0.1061  0.4927
   93TIP3    H1  278   0.706   0.312   0.529  0.7815 -0.1852  1.5247
   93TIP3    H2  279   0.611   0.226   0.608 -0.2005 -0.3869  0.1478
   94TIP3   OH2  280   0.068   0.419   2.190 -0.4116 -0.0775 -0.1017
   94TIP3    H1  281   0.061   0.334   2.148  0.6505 -0.3133  0.1509
   94TIP3    H2  282   0.094   0.479   2.119  1.8081 -0.5539  0.2108
   95TIP3   OH2  283   1.062  -0.003   0.336 -0.1334 -0.6477 -0.6203
   95TIP3    H1  284   1.112   0.078   0.337 -0.9110 -0.0908  2.3530
   95TIP3    H2  285   1.022  -0.005   0.249  0.5580  1.7289 -1.0737
   96TIP3   OH2  286   2.344   0.502   0.165  0.5052  0.3539 -0.1868
   96TIP3    H1  287   2.377   0.457   0.088  0.8043  1.7827 -0.9354
   96TIP3    H2  288   2.377   0.451   0.239  0.4002 -0.9122 -0.9842
   97TIP3   OH2  289   1.597   0.363   2.453 -0.0261 -0.0812  0.2570
   97TIP3    H1  290   1.663   0.308   2.496 -1.9174 -2.2830  0.5266
   97TIP3    H2  291   1.592   0.441   2.507  1.4550 -0.4065  0.9366
   98TIP3   OH2  292   2.219   2.179   0.481  0.4771  0.2147 -0.0871
   98TIP3    H1  293   2.303   2.184   0.436  0.1409 -0.7658 -0.8361
   98TIP3    H2  294   2.214   2.089   0.513 -0.3855  0.2124 -0.2244
   99TIP3   OH2  295   1.398   1.258   1.901 -0.7345 -0.4466 -0.0813
   99TIP3    H1  296   1.435   1.307   1.974 -0.5615  2.1159 -1.7785
   99TIP3    H2  297   1.415   1.166   1.923  0.1336  0.2607  2.6076
  100TIP3   OH2  298   2.340   0.697   1.365 -0.4523 -0.6347 -0.5837
  100TIP3    H1  299   2.375   0.610   1.348  0.9990  0.2035 -2.2199
  100TIP3    H2  300   2.257   0.700   1.318 -0.4752 -1.1163 -0.5749
  101TIP3   OH2  301   1.332   0.076   0.187 -0.3232 -0.2395 -0.1130
  101TIP3    H1  302   1.364   0.082   0.276 -2.1791 -0.8869  0.6530
  101TIP3    H2  303   1.389   0.011   0.145  1.1654  0.7604  0.2770
  102TIP3   OH2  304   0.609   1.018   1.760  0.1582  0.0877  0.1103
  102TIP3    H1  305   0.671   1.065   1.704  0.6838 -0.8470 -0.1102
  102TIP3    H2  306   0.524   1.031   1.717  0.1501  1.4573  0.4684
  103TIP3   OH2  307   2.050   1.932   2.295  0.6693 -0.2133 -0.3286
  103TIP3    H1  308   2.034   1.940   2.389 -2.8690 -1.4874 -0.6518
  103TIP3    H2  309   2.098   1.850   2.285 -1.9755 -1.9743  0.3066
  104TIP3   OH2  310   1.621   1.249   0.363  0.5779 -0.1227  0.6267
  104TIP3    H1  311   1.538   1.292   0.343 -0.4643 -2.7929 -1.3922
  104TIP3    H2  312   1.684   1.289   0.303  0.1292  0.0435  0.2586
  105TIP3   OH2  313   0.426   0.555   1.943 -0.3221 -0.0069  0.4757
  105TIP3    H1  314   0.428   0.536   1.849 -2.1233 -0.1822  0.4316
  105TIP3    H2  315   0.456   0.474   1.985 -1.0046 -0.4705  0.0821
  106TIP3   OH2  316   2.101   0.841   1.537  0.0997  0.3421 -0.6531
  106TIP3    H1  317   2.009   0.839   1.562 -0.0381 -2.6408 -1.0541
  106TIP3    H2  318   2.143   0.776   1.594  2.3154  2.6584  0.5606
  107TIP3   OH2  319   1.111   1.109   1.460 -0.7868 -0.4780  0.3292
  107TIP3    H1  320   1.190   1.161   1.475 -2.1032  1.2912  1.7318
  107TIP3    H2  321   1.133   1.022   1.493 -0.0175  0.4934  2.6201
  108TIP3   OH2  322   2.333   1.300   1.238  0.3085  0.6532  0.0336
  108TIP3    H1  323   2.424   1.318   1.217  0.0124 -0.5947 -2.7312
  108TIP3    H2  324   2.286   1.380   1.216  0.5156  0.7128 -0.1840
  109TIP3   OH2  325   2.442   1.653   1.452 -0.0844  0.0294  0.4320
  109TIP3    H1  326   2.373   1.645   1.386  0.7937  2.2718 -0.8825
  109TIP3    H2  327   2.394   1.676   1.532 -0.9544  0.9135 -0.3042
  110TIP3   OH2  328   2.085   1.733   1.850  0.1987  0.1710  0.1374
  110TIP3    H1  329   2.112   1.671   1.917 -1.8817 -0.6010  0.3392
  110TIP3    H2  330   1.989   1.726   1.847  0.1944 -0.9138 -3.8962
  111TIP3   OH2  331   0.902   1.505   0.032  0.2493  0.1560  0.3618
  111TIP3    H1  332   0.942   1.426   0.069 -0.0163  0.0867  0.5001
  111TIP3    H2  333   0.959   1.527  -0.042 -0.3988 -0.9111 -0.4839
  112TIP3   OH2  334   1.927   0.271   1.156  0.0968 -0.1068  0.0424
  112TIP3    H1  335   1.910   0.290   1.249 -1.6644 -0.3594 -0.2034
  112TIP3    H2  336   1.931   0.175   1.152 -0.1784 -0.1093 -0.1922
  113TIP3   OH2  337   1.932   1.862   0.996  0.0359 -0.4608 -0.0210
  113TIP3    H1  338   1.904   1.889   0.909 -3.8690  0.7861  1.4289
  113TIP3    H2  339   1.900   1.773   1.006 -0.3924 -0.2631  0.4395
  114TIP3   OH2  340   0.614   0.360   1.137 -0.2479  0.5394  0.1567
  114TIP3    H1  341   0.576   0.272   1.135  0.6602  0.0474  2.0087
  114TIP3    H2  342   0.541   0.417   1.160 -0.4572 -0.0208  0.9467
  115TIP3   OH2  343   0.178   2.202   1.197 -0.0913  0.3227 -0.6366
  115TIP3    H1  344   0.112   2.225   1.132  0.3128 -1.4788 -1.7316
  115TIP3    H2  345   0.235   2.139   1.154  0.8920 -0.0671  1.0994
  116TIP3   OH2  346   0.511   0.473   0.728  0.5105  0.0110 -0.0118
  116TIP3    H1  347   0.587   0.415   0.726  0.0338 -0.6546  0.6838
  116TIP3    H2  348   0.539   0.547   0.781  0.7104 -0.1753  0.1430
  117TIP3   OH2  349   1.434   1.166   2.379  0.6716  0.2424  0.0371
  117TIP3    H1  350   1.379   1.109   2.433  1.4479 -1.3482 -0.7603
  117TIP3    H2  351   1.512   1.113   2.360  0.9290  1.1554 -1.6779
  118TIP3   OH2  352   2.417   2.181   1.714 -0.5672  0.1097  0.1763
  118TIP3    H1  353   2.323   2.192   1.706 -0.4797  1.6673  1.0297
  118TIP3    H2  354   2.452   2.200   1.627 -1.1215 -2.0279 -0.5774
  119TIP3   OH2  355   1.038   1.167   2.508 -0.8285 -0.4967 -0.4409
  119TIP3    H1  356   1.049   1.157   2.413 -1.4427 -1.9844 -0.3768
  119TIP3    H2  357   0.946   1.146   2.524 -1.0579  0.9749  0.3560
  120TIP3   OH2  358   2.061   0.867   1.205 -0.1542  0.0888 -0.0025
  120TIP3    H1  359   2.130   0.920   1.165 -1.5982  2.1921  0.1686
  120TIP3    H2  360   2.086   0.862   1.298  1.0568 -1.3640 -0.3544
  121TIP3   OH2  361   2.373   2.316   0.215  0.1696  0.5486 -0.3049
  121TIP3    H1  362   2.320   2.380   0.263 -0.1589  0.2016 -0.1991
  121TIP3    H2  363   2.439   2.287   0.277  1.9224  2.6322 -1.0910
  122TIP3   OH2  364   1.723   2.509   0.003 -0.2692 -0.3804 -0.1329
  122TIP3    H1  365   1.631   2.486  -0.002 -0.6392  0.9157  0.1826
  122TIP3    H2  366   1.755   2.463   0.081 -1.2469  0.9381  1.1169
  123TIP3   OH2  367   1.756   0.248   0.152 -0.2808  0.2266 -0.3272
  123TIP3    H1  368   1.820   0.270   0.220  3.0436  1.6619 -3.6144
  123TIP3    H2  369   1.779   0.160   0.124  0.5308  0.8499 -1.7147
  124TIP3   OH2  370   1.945   1.740   0.266  0.6429  0.1999 -0.3644
  124TIP3    H1  371   2.013   1.701   0.322 -1.4881 -1.2620  1.4266
  124TIP3    H2  372   1.916   1.668   0.210 -0.3943  0.3307 -0.0380
  125TIP3   OH2  373   0.601   2.292   1.343  0.5579 -0.0658  0.0622
  125TIP3    H1  374   0.627   2.279   1.251 -0.9314 -1.2839 -0.2460
  125TIP3    H2  375   0.513   2.330   1.337  0.3248 -0.4470  0.9813
  126TIP3   OH2  376   1.174   0.613   0.856  0.0613 -0.3703 -0.1703
  126TIP3    H1  377   1.152   0.646   0.769  1.0677 -0.0394 -0.3160
  126TIP3    H2  378   1.119   0.535   0.867  0.4984 -0.8939 -1.4410
  127TIP3   OH2  379   0.339   1.590   2.507 -0.2057  0.3471  0.1693
  127TIP3    H1  380   0.248   1.611   2.485 -0.9325 -1.8345  0.7833
  127TIP3    H2  381   0.377   1.559   2.425 -0.4540 -0.0137  0.1834
  128TIP3   OH2  382   1.319   0.907   1.401  0.5319  0.4686 -0.1313
  128TIP3    H1  383   1.366   0.836   1.445 -1.4199 -0.5469  0.3973
  128TIP3    H2  384   1.368   0.986   1.425  2.5239 -0.5951 -0.4215
  129TIP3   OH2  385   2.077   0.468   0.103  0.4355  0.1073  0.2398
  129TIP3    H1  386   2.089   0.452   0.009  0.2217  0.8146  0.0862
  129TIP3    H2  387   2.160   0.506   0.131 -0.6199  3.1934 -0.4206
  130TIP3   OH2  388   0.589   0.968   2.390  0.0504  0.9031  0.5058
  130TIP3    H1  389   0.500   1.002   2.377 -0.9482 -1.7592 -0.1069
  130TIP3    H2  390   0.578   0.874   2.402  2.7318  0.6327  1.4354
  131TIP3   OH2  391   0.088   1.401   1.457  0.5603 -1.2273 -0.8753
  131TIP3    H1  392   0.022   1.380   1.523 -0.2118 -1.1231 -1.5969
  131TIP3    H2  393   0.063   1.488   1.425  1.7571 -0.6444 -0.3113
  132TIP3   OH2  394   1.977   2.167   2.478 -0.3925  0.5550 -0.1720
  132TIP3    H1  395   1.907   2.161   2.543 -0.3412  0.4281 -0.1261
  132TIP3    H2  396   1.958   2.095   2.417  0.8219 -0.7821  0.9588
  133TIP3   OH2  397   0.052   2.225   0.404 -0.2032  0.1586  0.1422
  133TIP3    H1  398   0.147   2.234   0.407  0.0380 -0.7983 -2.1961
  133TIP3    H2  399   0.030   2.178   0.485  1.5425 -1.0743 -0.0347
  134TIP3   OH2  400   0.309   0.719   1.686 -0.7640  0.8634 -0.0781
  134TIP3    H1  401   0.216   0.702   1.673 -0.7105  1.7331 -2.0001
  134TIP3    H2  402   0.349   0.700   1.601  0.2076  4.0812 -0.5040
  135TIP3   OH2  403   2.010   0.482   1.394  0.7190  0.1399 -0.4083
  135TIP3    H1  404   2.019   0.476   1.299 -0.9271  1.4370 -0.6758
  135TIP3    H2  405   1.960   0.404   1.418 -2.4230  1.7554 -1.1989
  136TIP3   OH2  406   0.016   0.590   0.431 -0.8815 -0.1583 -0.1837
  136TIP3    H1  407   0.063   0.518   0.473  0.1508  0.4648 -0.2340
  136TIP3    H2  408   0.078   0.625   0.367 -1.5989  0.3696 -0.6030
  137TIP3   OH2  409   0.053   0.885   0.987 -0.2082  0.1848 -1.0429
  137TIP3    H1  410  -0.025   0.836   0.960 -2.1000  2.1903  0.3653
  137TIP3    H2  411   0.047   0.967   0.938  0.8313  0.5013 -0.6600
  138TIP3   OH2  412   2.055   1.000   0.098 -0.7501 -0.2907 -0.1682
  138TIP3    H1  413   2.139   1.003   0.143 -0.9655 -1.8179  0.3878
  138TIP3    H2  414   2.006   0.930   0.141 -1.7310 -0.4551 -1.4719
  139TIP3   OH2  415   0.505   1.020   0.358  0.4357  0.5367  0.4348
  139TIP3    H1  416   0.462   1.103   0.336 -0.5508 -0.2056 -0.5601
  139TIP3    H2  417   0.450   0.953   0.317  1.2059 -0.6153  1.2338
  140TIP3   OH2  418   1.050   0.879   1.693  0.0995 -0.2607 -0.2391
  140TIP3    H1  419   1.130   0.932   1.699  1.0861 -1.6736 -0.3589
  140TIP3    H2  420   0.988   0.923   1.750  0.7486  1.2159 -0.6028
  141TIP3   OH2  421   0.341   0.986   1.663  0.1603 -0.3804  0.0618
  141TIP3    H1  422   0.268   1.033   1.624  0.5579  0.2602  0.0622
  141TIP3    H2  423   0.347   0.905   1.613 -2.0195 -1.5672  1.5677
  142TIP3   OH2  424   1.475   2.136   1.601  0.1972 -0.5890  0.4003
  142TIP3    H1  425   1.390   2.120   1.561 -0.1293  2.8708 -0.6770
  142TIP3    H2  426   1.533   2.153   1.527  0.7847  1.0855  1.1926
  143TIP3   OH2  427   0.152   0.098   1.400  0.3795  0.2189  0.7063
  143TIP3    H1  428   0.165   0.093   1.305  0.4758 -1.1531  0.7640
  143TIP3    H2  429   0.228   0.146   1.432  0.3071  0.7607  0.0780
  144TIP3   OH2  430   0.051   2.397   2.116 -0.0048 -0.0033  0.4813
  144TIP3    H1  431   0.005   2.333   2.171 -1.9725  1.2763  0.4319
  144TIP3    H2  432   0.025   2.376   2.027 -2.1673  1.8697  0.5769
  145TIP3   OH2  433   2.417   2.194   2.272  0.5741 -0.2112 -0.3418
  145TIP3    H1  434   2.327   2.222   2.288  0.5132 -0.6883  0.1605
  145TIP3    H2  435   2.456   2.185   2.359  1.0089 -0.3376 -0.5439
  146TIP3   OH2  436   0.269   0.868   2.171  0.3971 -0.0560  0.4796
  146TIP3    H1  437   0.294   0.960   2.186  0.1052 -0.1609  1.7398
  146TIP3    H2  438   0.293   0.851   2.080  0.5065  1.2569  0.2402
  147TIP3   OH2  439   1.677   1.390   0.610 -0.2673 -0.3624 -0.1778
  147TIP3    H1  440   1.694   1.347   0.526  0.8760 -1.3028  0.4958
  147TIP3    H2  441   1.691   1.483   0.593  2.0253 -0.7219 -0.5905
  148TIP3   OH2  442   0.976   1.314   1.594 -0.0645 -0.0917  0.4767
  148TIP3    H1  443   1.033   1.350   1.661 -0.8669 -0.6414  1.4802
  148TIP3    H2  444   1.017   1.232   1.568  0.5335  0.3833 -0.1236
  149TIP3   OH2  445   0.847   0.239   1.015 -0.0060  0.0044  1.0331
  149TIP3    H1  446   0.904   0.200   1.081 -1.2347 -1.0694  1.4992
  149TIP3    H2  447   0.767   0.262   1.063 -1.0263 -1.0491 -0.1035
  150TIP3   OH2  448   2.041   1.508   2.237 -0.1020 -0.0282  0.7600
  150TIP3    H1  449   2.075   1.432   2.285  1.4409  1.1310  1.6049
  150TIP3    H2  450   2.108   1.526   2.171 -0.8184  0.1671  0.0725
  151TIP3   OH2  451   0.631   1.669   2.431  0.5255 -0.3295 -0.7479
  151TIP3    H1  452   0.586   1.685   2.514  1.4519 -0.1403 -0.2676
  151TIP3    H2  453   0.701   1.609   2.453  0.1835 -1.0583 -1.5913
  152TIP3   OH2  454   2.327   0.989   1.476 -0.4516 -0.5531 -0.1687
  152TIP3    H1  455   2.248   0.957   1.520 -1.3566 -0.2636 -1.5340
  152TIP3    H2  456   2.338   0.931   1.401  0.2413 -0.1536 -0.3831
  153TIP3   OH2  457   1.479   2.357   0.022 -0.0929 -0.0486  0.2082
  153TIP3    H1  458   1.457   2.365  -0.071 -1.2622 -0.0403  0.4754
  153TIP3    H2  459   1.398   2.329   0.064  0.0182  1.3479  1.4388
  154TIP3   OH2  460   2.085   1.271   1.946 -0.2676  0.2195  0.7121
  154TIP3    H1  461   2.133   1.206   1.895  0.2751  2.0754 -1.2998
  154TIP3    H2  462   2.065   1.227   2.029  2.3193 -1.6334  0.4857
  155TIP3   OH2  463   0.022   0.850   2.336 -0.8684  0.0304  0.0476
  155TIP3    H1  464   0.093   0.795   2.303 -2.7713 -1.8071 -1.2816
  155TIP3    H2  465  -0.036   0.861   2.261 -1.4063  2.5463  0.7385
  156TIP3   OH2  466   0.695   0.681   1.021 -0.5429  0.1041 -0.1435
  156TIP3    H1  467   0.752   0.605   1.008 -0.5160  0.1706 -0.4341
  156TIP3    H2  468   0.721   0.717   1.106 -1.7032 -1.2014  0.8194
  157TIP3   OH2  469   0.075   1.217   0.072  0.5605  0.2062 -0.0332
  157TIP3    H1  470   0.052   1.204  -0.020  0.5731  1.3040 -0.2034
  157TIP3    H2  471   0.163   1.254   0.070  1.2523 -1.3586  0.5040
  158TIP3   OH2  472   2.192   0.519   1.961  0.1323  0.3321  0.0839
  158TIP3    H1  473   2.152   0.513   1.874 -2.8102  2.1652  1.1543
  158TIP3    H2  474   2.177   0.433   2.000  0.3890 -0.1177 -0.7815
  159TIP3   OH2  475   1.032   0.523   2.471  0.0742 -0.2698 -0.7245
  159TIP3    H1  476   1.125   0.543   2.479 -0.1000 -0.0950  1.8560
  159TIP3    H2  477   1.029   0.441   2.423  1.7276 -1.2725  0.7562
  160TIP3   OH2  478   2.168   1.976   1.856  0.7889  0.2747 -0.6043
  160TIP3    H1  479   2.134   1.887   1.856  0.8838  0.2166  0.7069
  160TIP3    H2  480   2.214   1.985   1.772 -1.6944  0.0800 -2.0726
  161TIP3   OH2  481   0.017   0.182   2.057 -0.1128  0.0316 -0.0201
  161TIP3    H1  482   0.031   0.094   2.093  2.7498  0.7516  0.9034
  161TIP3    H2  483   0.005   0.168   1.963  2.4536 -1.2769 -0.2385
  162TIP3   OH2  484   2.225   1.417   0.651  0.2960 -0.2122 -0.2285
  162TIP3    H1  485   2.252   1.384   0.737 -0.1292  0.9882  0.3892
  162TIP3    H2  486   2.135   1.448   0.664  0.5299  0.7938 -0.8694
  163TIP3   OH2  487   0.774   1.676   1.629 -0.1767 -0.2774  0.9734
  163TIP3    H1  488   0.838   1.671   1.700  1.5861  2.8849 -0.1604
  163TIP3    H2  489   0.731   1.761   1.641 -2.7826 -1.4207  0.4859
  164TIP3   OH2  490   1.611   2.193   1.347 -0.1504 -0.5226 -0.2100
  164TIP3    H1  491   1.627   2.281   1.314 -0.6157 -0.6854 -0.8785
  164TIP3    H2  492   1.696   2.164   1.382 -0.1247  0.3985  0.5332
  165TIP3   OH2  493   0.666   0.699   0.521  0.1306  0.6530  0.3022
  165TIP3    H1  494   0.716   0.780   0.525 -1.1947  1.4535  1.4381
  165TIP3    H2  495   0.645   0.679   0.612  2.3192 -2.2271  0.3071
  166TIP3   OH2  496   2.206   2.452   0.419  0.5869 -0.0149 -0.2975
  166TIP3    H1  497   2.149   2.509   0.470  0.3252  0.1269 -0.7414
  166TIP3    H2  498   2.165   2.366   0.425  1.7902 -0.5298  1.6442
  167TIP3   OH2  499   0.127   2.490   0.281  0.4977 -0.2380 -0.6452
  167TIP3    H1  500   0.124   2.497   0.185 -0.5916 -1.1196 -0.6915
  167TIP3    H2  501   0.215   2.455   0.299  1.3630  1.5395 -1.1814
  168TIP3   OH2  502   0.267   0.729   0.976  0.0083  0.0935  0.3244
  168TIP3    H1  503   0.194   0.791   0.982  0.9266  1.1606  0.7229
  168TIP3    H2  504   0.321   0.762   0.904 -0.2497 -1.1046 -0.4594
  169TIP3   OH2  505   1.116   0.335   0.389 -0.3862  0.2256 -0.2225
  169TIP3    H1  506   1.192   0.339   0.332 -0.1632 -0.6534 -0.0033
  169TIP3    H2  507   1.041   0.332   0.329 -0.0924 -2.2681 -0.5459
  170TIP3   OH2  508   2.397   1.734   0.876 -0.6858  0.9300  0.4838
  170TIP3    H1  509   2.396   1.720   0.781  2.6215  2.8690  0.0026
  170TIP3    H2  510   2.355   1.820   0.887  1.1552  1.8861  0.3963
  171TIP3   OH2  511   0.366   2.045   1.105 -0.6299  0.1555  0.3067
  171TIP3    H1  512   0.415   1.972   1.066  0.0477  0.7395  0.0506
  171TIP3    H2  513   0.372   2.029   1.199  1.1260  0.8716  0.3519
  172TIP3   OH2  514  -0.011   0.758   0.648 -0.5023 -0.4938 -0.1550
  172TIP3    H1  515   0.016   0.842   0.610 -0.6978 -0.6815 -0.7169
  172TIP3    H2  516   0.011   0.693   0.581  1.4976 -1.1555  1.0521
  173TIP3   OH2  517   0.338   2.110   2.228  0.0505  0.4625 -0.4606
  173TIP3    H1  518   0.275   2.049   2.267 -0.9784  0.7618 -1.6172
  173TIP3    H2  519   0.416   2.102   2.283 -0.6258 -0.7051  0.3628
  174TIP3   OH2  520   0.102   1.118   1.486 -0.2404  0.3420  0.2188
  174TIP3    H1  521   0.108   1.210   1.460 -0.5152  0.3300  0.1098
  174TIP3    H2  522   0.009   1.099   1.486 -0.2035  0.1534  0.5676
  175TIP3   OH2  523   0.826   2.147   2.310 -0.0588 -0.4017 -0.3193
  175TIP3    H1  524   0.889   2.083   2.344 -1.2521 -1.9439 -0.8668
  175TIP3    H2  525   0.841   2.147   2.215  0.6694  0.9835 -0.2172
  176TIP3   OH2  526   0.671   1.942   1.255 -0.7290  0.1658 -0.1057
  176TIP3    H1  527   0.594   1.893   1.284 -0.2932 -0.9992 -0.8612
  176TIP3    H2  528   0.673   2.019   1.312 -3.4742  1.1858 -1.2053
  177TIP3   OH2  529   0.120   0.471   1.062  0.1147  0.0172 -0.5907
  177TIP3    H1  530   0.091   0.513   0.982  0.8508  2.2796  0.2386
  177TIP3    H2  531   0.041   0.458   1.113 -0.2570 -0.6599 -1.3302
  178TIP3   OH2  532   0.667   0.976   2.068 -0.1439 -0.0164  0.0991
  178TIP3    H1  533   0.693   0.899   2.117 -1.6784 -0.1270  0.7836
  178TIP3    H2  534   0.599   0.945   2.008 -0.5404  0.7339  0.1462
  179TIP3   OH2  535   0.079   2.216   0.934 -0.4282  0.7320  0.3976
  179TIP3    H1  536   0.007   2.169   0.892  0.2941  1.2416 -1.5203
  179TIP3    H2  537   0.158   2.187   0.888  0.3252  1.8646  0.9203
  180TIP3   OH2  538   1.481   1.102   1.261 -0.0318  0.9212 -0.9972
  180TIP3    H1  539   1.458   1.022   1.215  0.5379 -1.2464  2.1280
  180TIP3    H2  540   1.399   1.152   1.264 -0.8673 -0.3565 -1.5676
  181TIP3   OH2  541   0.448   1.290   0.340  0.1275  0.2410  0.8933
  181TIP3    H1  542   0.539   1.295   0.368  0.3926  0.4867  0.0188
  181TIP3    H2  543   0.408   1.370   0.376  0.5208  0.6798  0.3784
  182TIP3   OH2  544   2.392   1.646   0.614  0.0676 -0.0792 -0.5039
  182TIP3    H1  545   2.473   1.603   0.587  0.9036  0.5409  0.9149
  182TIP3    H2  546   2.329   1.574   0.625  0.7806 -0.7018 -0.4020
  183TIP3   OH2  547   1.915   1.002   2.360 -0.1998 -0.3838 -0.3394
  183TIP3    H1  548   1.982   0.996   2.428 -0.0744 -0.2005 -0.4451
  183TIP3    H2  549   1.892   0.911   2.340 -1.6165 -0.4336  1.2877
  184TIP3   OH2  550   1.071   2.170   1.782  0.2012 -0.0293 -0.2768
  184TIP3    H1  551   1.028   2.256   1.783 -0.5169 -0.3788 -0.2665
  184TIP3    H2  552   1.002   2.109   1.806  0.9141 -0.5311  0.5570
  185TIP3   OH2  553   1.412   0.581   1.848  0.0227 -0.3407  0.4221
  185TIP3    H1  554   1.363   0.506   1.815 -2.3907  1.8036 -1.2920
  185TIP3    H2  555   1.364   0.610   1.925 -1.5896  1.7084 -1.2070
  186TIP3   OH2  556   1.804   0.733   0.776 -0.1555  0.4288  0.0818
  186TIP3    H1  557   1.747   0.748   0.852 -0.4955  1.0568 -0.2890
  186TIP3    H2  558   1.770   0.653   0.737  0.5204 -0.3502  1.0364
  187TIP3   OH2  559   0.369   1.135   2.348  0.3450 -0.2422  0.2905
  187TIP3    H1  560   0.296   1.170   2.297 -1.2301 -3.3926  0.1118
  187TIP3    H2  561   0.363   1.180   2.432 -0.2862  1.2688 -0.5249
  188TIP3   OH2  562   0.042   0.111   1.649 -0.7571  0.3482 -0.7593
  188TIP3    H1  563   0.114   0.169   1.671 -0.0413 -1.0672  0.9275
  188TIP3    H2  564   0.058   0.086   1.558  0.8309  0.1655 -0.4552
  189TIP3   OH2  565   0.930   0.630   1.153 -0.0162 -0.5168  0.3184
  189TIP3    H1  566   0.931   0.688   1.229  0.9160 -1.2182  0.8779
  189TIP3    H2  567   1.016   0.587   1.155  0.2805 -0.1294 -1.4770
  190TIP3   OH2  568   0.775   0.664  -0.013  0.4001  0.2134 -0.0245
  190TIP3    H1  569   0.715   0.631   0.055 -1.1578  0.2007 -1.3360
  190TIP3    H2  570   0.849   0.604  -0.010 -0.7017 -1.2032  0.1224
  191TIP3   OH2  571   0.559   0.412   2.445  0.8634 -0.5066 -0.0237
  191TIP3    H1  572   0.497   0.470   2.489 -0.4734 -1.0081 -1.1563
  191TIP3    H2  573   0.515   0.388   2.364  1.0807 -3.5922  0.6586
  192TIP3   OH2  574   0.627   2.464   1.561 -0.2425  0.3166  0.4035
  192TIP3    H1  575   0.658   2.522   1.492  0.4909 -1.1129 -0.5228
  192TIP3    H2  576   0.627   2.377   1.521 -1.5844 -0.3013  1.6473
  193TIP3   OH2  577   1.306   1.239   0.894 -0.2278  0.4191  0.5111
  193TIP3    H1  578   1.398   1.254   0.871 -0.1490 -2.3002 -1.3781
  193TIP3    H2  579   1.257   1.276   0.820 -0.7738  2.3103  1.7417
  194TIP3   OH2  580   1.288   1.765   0.444 -0.0628 -0.1830 -0.2270
  194TIP3    H1  581   1.306   1.852   0.410  0.6254 -0.2701 -0.0999
  194TIP3    H2  582   1.206   1.739   0.402  0.7191 -0.2485 -1.7699
  195TIP3   OH2  583   1.525   0.976   1.635 -0.0545  0.2231  0.5267
  195TIP3    H1  584   1.546   0.973   1.728 -0.2108 -0.3425  0.5459
  195TIP3    H2  585   1.534   0.885   1.605 -1.8968  0.0526  0.4084
  196TIP3   OH2  586   0.241   1.356   1.761  0.6826 -0.4656 -0.3847
  196TIP3    H1  587   0.207   1.269   1.781  0.3099 -0.2577 -0.1076
  196TIP3    H2  588   0.184   1.388   1.691  0.6541 -0.3385 -0.3029
  197TIP3   OH2  589   1.047   1.552   1.474 -0.5321 -0.0850  0.0830
  197TIP3    H1  590   1.009   1.464   1.465  0.9385 -0.5391 -3.7282
  197TIP3    H2  591   0.986   1.609   1.427  1.2667 -0.1612 -2.5554
  198TIP3   OH2  592   1.464   1.695   0.631  0.3935  0.2839  0.0549
  198TIP3    H1  593   1.413   1.718   0.553  0.8101  1.7511  0.1988
  198TIP3    H2  594   1.398   1.665   0.693 -0.0686  0.2070 -0.4566
  199TIP3   OH2  595   0.797   0.183   2.234 -0.2274  0.2262  0.0129
  199TIP3    H1  596   0.809   0.123   2.161  0.2889  0.2864  0.0447
  199TIP3    H2  597   0.884   0.218   2.251 -0.6162  1.5085 -0.4481
  200TIP3   OH2  598   1.685   1.971   1.908 -0.1883  0.7570 -0.0530
  200TIP3    H1  599   1.701   2.065   1.921 -1.4678  1.0361 -0.3567
  200TIP3    H2  600   1.638   1.944   1.987  0.4412  0.2836  0.1730
  201TIP3   OH2  601   1.564   1.269   0.843 -0.3050 -0.4392 -0.2738
  201TIP3    H1  602   1.637   1.262   0.905  0.4010  2.2461 -0.6691
  201TIP3    H2  603   1.601   1.317   0.768 -1.9371 -0.9301 -1.4559
  202TIP3   OH2  604   0.639   1.766   0.443  0.0114  0.4948 -0.3928
  202TIP3    H1  605   0.704   1.824   0.403  1.0401  0.4409  1.1245
  202TIP3    H2  606   0.659   1.768   0.537 -0.7710 -1.2873 -0.1460
  203TIP3   OH2  607   1.892   0.853   2.007  0.0798  0.1269 -0.1516
  203TIP3    H1  608   1.809   0.814   2.035 -0.0742 -1.5074 -2.5809
  203TIP3    H2  609   1.959   0.795   2.043 -0.0052 -0.5143 -1.0050
  204TIP3   OH2  610   0.603   1.066   0.630  0.4606 -0.1411  0.0975
  204TIP3    H1  611   0.576   1.051   0.540  0.7007  1.6917 -0.3298
  204TIP3    H2  612   0.698   1.055   0.629  0.2935 -1.8710  0.5481
  205TIP3   OH2  613   0.781   2.204   2.029  0.2455  0.4920  0.5881
  205TIP3    H1  614   0.769   2.120   1.985  1.1408  1.8342 -2.4397
  205TIP3    H2  615   0.697   2.222   2.070 -0.3055 -1.3275  0.3362
  206TIP3   OH2  616   1.137   2.271   0.094  0.2920 -0.3085 -0.0202
  206TIP3    H1  617   1.145   2.192   0.041  1.8606 -0.1252 -0.1107
  206TIP3    H2  618   1.078   2.328   0.044  1.6925 -0.1545 -1.5946
  207TIP3   OH2  619   0.417   0.703   0.434 -0.8515 -0.2427 -0.4875
  207TIP3    H1  620   0.499   0.700   0.485 -0.3335 -1.6378 -1.3611
  207TIP3    H2  621   0.445   0.724   0.345 -1.6663  1.2538 -0.4272
  208TIP3   OH2  622   0.990   2.118   0.471  0.3137  0.5825 -0.2652
  208TIP3    H1  623   1.020   2.106   0.561 -1.1234  1.7039  0.4082
  208TIP3    H2  624   1.044   2.190   0.438 -0.3421  1.3720  0.3282
  209TIP3   OH2  625   2.263   0.119   0.930  0.0847  0.3854 -0.3729
  209TIP3    H1  626   2.228   0.205   0.953  2.7994  1.0967  1.6017
  209TIP3    H2  627   2.334   0.137   0.868  0.7860 -0.3646  0.1804
  210TIP3   OH2  628   0.682   0.100   0.295  0.2240 -0.1501 -0.0328
  210TIP3    H1  629   0.725   0.135   0.218 -1.6610  0.4492 -0.8682
  210TIP3    H2  630   0.671   0.175   0.353 -2.6944  0.5480 -1.3004
  211TIP3   OH2  631   0.680   1.547   1.953  0.6294 -0.1269 -0.5743
  211TIP3    H1  632   0.633   1.464   1.944  0.6976  0.0320 -2.9436
  211TIP3    H2  633   0.636   1.592   2.025 -0.3540 -1.5955 -0.2212
  212TIP3   OH2  634   2.403   0.775   0.101  0.3471  0.2073  0.3139
  212TIP3    H1  635   2.389   0.683   0.082  0.4469  0.5422 -1.5837
  212TIP3    H2  636   2.437   0.812   0.019 -0.6802  2.1346  0.6883
  213TIP3   OH2  637   1.846   0.090   0.436  0.0675  0.1253  0.2986
  213TIP3    H1  638   1.901   0.011   0.438  0.8587  0.6732  1.7426
  213TIP3    H2  639   1.902   0.157   0.398 -0.0887  0.3459  0.4563
  214TIP3   OH2  640   1.712   2.426   0.781  0.2428 -0.2602  0.0622
  214TIP3    H1  641   1.773   2.491   0.815  0.6042 -0.0838 -0.9243
  214TIP3    H2  642   1.689   2.373   0.858  0.8849  0.2672  0.6273
  215TIP3   OH2  643   1.742   0.473   2.243  0.1586 -0.0202 -0.4196
  215TIP3    H1  644   1.803   0.400   2.253 -0.3114 -0.0545  3.8001
  215TIP3    H2  645   1.662   0.443   2.286 -0.9240  2.0811 -0.8572
  216TIP3   OH2  646   0.016   0.553   0.823 -0.0356  0.2837  0.5169
  216TIP3    H1  647   0.046   0.625   0.768  0.6995 -0.4971 -0.1239
  216TIP3    H2  648   0.031   0.474   0.770  1.5202 -0.5872  2.1579
  217TIP3   OH2  649   1.756   1.688   0.537 -0.6875  0.0132 -0.1491
  217TIP3    H1  650   1.745   1.738   0.456 -0.3362  0.3098 -0.0170
  217TIP3    H2  651   1.676   1.706   0.587 -0.0834  1.3839  0.3940
  218TIP3   OH2  652   2.250   0.139   0.168  0.0318 -0.2702 -0.5304
  218TIP3    H1  653   2.319   0.164   0.229 -0.3108  0.5407 -0.4744
  218TIP3    H2  654   2.183   0.099   0.223 -0.1627  0.2242 -0.4042
  219TIP3   OH2  655   1.407   0.689   1.555 -0.2271 -0.3766  0.5828
  219TIP3    H1  656   1.381   0.621   1.616 -0.0296 -0.9664  0.0202
  219TIP3    H2  657   1.405   0.647   1.469  1.9467 -0.2839  0.4301
  220TIP3   OH2  658   1.390   1.727   1.713 -0.1092 -0.3572  0.4321
  220TIP3    H1  659   1.404   1.814   1.752  1.2536 -1.2254  1.9825
  220TIP3    H2  660   1.337   1.745   1.635  0.3340  1.8889  0.5652
  221TIP3   OH2  661   1.886   0.199   0.812 -0.1647  0.5010  0.0334
  221TIP3    H1  662   1.842   0.284   0.822  0.5219  0.8122  0.5030
  221TIP3    H2  663   1.907   0.172   0.901  1.3400  0.7621 -0.2203
  222TIP3   OH2  664   2.079   1.124   0.844 -0.4036 -0.2264  0.2987
  222TIP3    H1  665   2.060   1.032   0.828  0.5189 -0.2687 -0.6194
  222TIP3    H2  666   2.173   1.132   0.833 -0.6306  1.0737 -0.9779
  223TIP3   OH2  667   0.129   0.489   1.551  0.9209 -0.3101  0.5590
  223TIP3    H1  668   0.190   0.544   1.503  1.5715 -1.1795  0.3735
  223TIP3    H2  669   0.097   0.425   1.487  0.9403 -0.7754  1.0002
  224TIP3   OH2  670   0.625   1.609   0.902  0.0101 -0.5259  0.5875
  224TIP3    H1  671   0.689   1.664   0.947  0.0700  1.1633 -1.3978
  224TIP3    H2  672   0.606   1.538   0.964  1.1942  0.8127  2.5964
  225TIP3   OH2  673   1.403   0.568   1.303 -0.1824 -0.1503 -0.5173
  225TIP3    H1  674   1.485   0.567   1.253  0.1868  0.7702  0.0296
  225TIP3    H2  675   1.334   0.557   1.237  0.3951 -1.9411 -0.8775
  226TIP3   OH2  676   1.107   1.648   0.197  0.4036  0.4398  0.3016
  226TIP3    H1  677   1.135   1.572   0.147 -0.2701 -0.2134  0.9003
  226TIP3    H2  678   1.047   1.613   0.263  0.1519  1.4743  0.6400
  227TIP3   OH2  679   0.205   1.241   2.116 -0.7721 -0.2299 -0.1248
  227TIP3    H1  680   0.259   1.308   2.158  0.0536 -0.6004 -0.5655
  227TIP3    H2  681   0.245   1.230   2.029 -2.0245  0.0240 -0.7452
  228TIP3   OH2  682   1.711   2.273   0.169  0.2990  0.5772 -0.0961
  228TIP3    H1  683   1.757   2.196   0.204  0.3979  0.8677  0.4358
  228TIP3    H2  684   1.629   2.239   0.135  1.1953 -0.0695 -1.7274
  229TIP3   OH2  685   0.731   0.147   1.332  0.1418  0.1751 -0.2900
  229TIP3    H1  686   0.717   0.235   1.367  0.0635 -0.8044  2.4137
  229TIP3    H2  687   0.660   0.134   1.269  0.6697  2.3052 -1.4242
  230TIP3   OH2  688   1.413   0.391   0.363  0.0327 -0.0524 -0.3588
  230TIP3    H1  689   1.437   0.471   0.408  0.8730 -1.2577  1.4377
  230TIP3    H2  690   1.478   0.382   0.293  0.2132  0.5683 -0.2750
  231TIP3   OH2  691   0.050   2.392   1.830  0.4592 -0.0420 -0.1372
  231TIP3    H1  692   0.023   2.457   1.765 -0.6802 -0.6466 -0.2920
  231TIP3    H2  693   0.010   2.310   1.801  2.8506 -1.1222 -0.6099
  232TIP3   OH2  694   1.374   1.174   1.556 -0.0173  0.0714  0.0830
  232TIP3    H1  695   1.445   1.113   1.576  0.0351  0.0985 -0.0205
  232TIP3    H2  696   1.417   1.248   1.514 -0.0577  0.2588  0.3666
  233TIP3   OH2  697   2.036   1.728   1.506  0.0515 -0.7485 -0.4743
  233TIP3    H1  698   1.984   1.648   1.500 -2.7985  0.9294 -0.3206
  233TIP3    H2  699   2.015   1.777   1.427  0.7984  0.3533 -0.0233
  234TIP3   OH2  700   1.036   1.661   2.267  0.3979  0.2899  0.1629
  234TIP3    H1  701   1.006   1.583   2.219 -0.5386  1.1166 -0.6690
  234TIP3    H2  702   1.129   1.667   2.248  0.3351 -0.2425 -0.3443
  235TIP3   OH2  703   1.655   0.560   1.199 -0.0917 -0.1668  0.3317
  235TIP3    H1  704   1.735   0.585   1.245  0.3321  0.0748 -0.5383
  235TIP3    H2  705   1.627   0.638   1.153  0.2826 -0.7895 -0.9897
  236TIP3   OH2  706   1.613   0.862   0.143  0.1800 -0.3503  0.4282
  236TIP3    H1  707   1.586   0.903   0.061  2.1188 -0.8709 -0.5364
  236TIP3    H2  708   1.587   0.924   0.211 -0.0965  0.8135 -0.7074
  237TIP3   OH2  709   0.681   1.897   0.744  0.0215 -0.3710 -0.3069
  237TIP3    H1  710   0.776   1.891   0.740  0.0115 -1.6601  0.5827
  237TIP3    H2  711   0.658   1.963   0.679  1.4715 -0.5041 -0.9947
  238TIP3   OH2  712   1.392   2.389   0.870 -0.6018  0.2766  0.4302
  238TIP3    H1  713   1.300   2.414   0.873 -0.3534  1.3534 -0.3731
  238TIP3    H2  714   1.421   2.415   0.783 -0.0268 -1.8886 -0.0859
  239TIP3   OH2  715   0.554   2.397   2.042  0.3002  0.0081 -0.5212
  239TIP3    H1  716   0.572   2.444   1.960 -1.9664 -1.5124 -1.9768
  239TIP3    H2  717   0.477   2.344   2.024 -1.4822  0.9898  3.1774
  240TIP3   OH2  718   2.316   2.327   0.704 -0.1858  0.1414 -0.4961
  240TIP3    H1  719   2.280   2.354   0.620 -1.2425  1.0680  0.2266
  240TIP3    H2  720   2.244   2.281   0.747  0.2400 -0.0352  0.0347
  241TIP3   OH2  721   2.261   1.643   1.665  0.1800 -0.0992  0.3105
  241TIP3    H1  722   2.201   1.675   1.597 -0.1565 -0.0193  0.6411
  241TIP3    H2  723   2.222   1.673   1.747 -0.1120 -1.3063  0.6302
  242TIP3   OH2  724   0.018   1.832   1.125  0.1632 -0.0199  0.1053
  242TIP3    H1  725  -0.017   1.862   1.041  1.0760  1.6963  0.2892
  242TIP3    H2  726   0.087   1.771   1.102 -0.7124 -0.8758 -0.3261
  243TIP3   OH2  727   1.474   1.962   1.272  0.4024 -0.1225 -0.1021
  243TIP3    H1  728   1.536   2.031   1.295  1.1061 -0.8209  0.1343
  243TIP3    H2  729   1.389   2.005   1.273  0.6901  0.4628  1.2903
  244TIP3   OH2  730   0.730   0.230   0.048 -0.3827  0.2068 -0.2230
  244TIP3    H1  731   0.652   0.284   0.033 -1.0961 -0.6045  0.4709
  244TIP3    H2  732   0.761   0.208  -0.040 -0.6245  0.9655 -0.5084
  245TIP3   OH2  733   0.349   2.375   1.324  0.1050  0.5238  1.0766
  245TIP3    H1  734   0.332   2.460   1.284 -0.3183  0.0769  0.2924
  245TIP3    H2  735   0.298   2.313   1.272 -0.5440 -0.0707  2.3533
  246TIP3   OH2  736   1.093   0.342   1.289 -0.2059  0.4431  0.4093
  246TIP3    H1  737   1.076   0.258   1.246 -1.3459  0.4366  0.8182
  246TIP3    H2  738   1.137   0.395   1.223 -3.4682  1.0799 -1.5002
  247TIP3   OH2  739   2.189   1.268   1.464  0.1209  0.4823  0.2238
  247TIP3    H1  740   2.238   1.267   1.381  3.3682  2.5662  1.8584
  247TIP3    H2  741   2.236   1.207   1.520  0.8211  2.3132  1.7663
  248TIP3   OH2  742   0.413   0.825   1.947 -0.0063  0.3507  1.2360
  248TIP3    H1  743   0.427   0.731   1.950  0.4469  0.3388 -0.1767
  248TIP3    H2  744   0.380   0.841   1.858  2.0734  1.7711  0.6444
  249TIP3   OH2  745   0.260   1.304   0.939  0.7058 -0.3825  0.1188
  249TIP3    H1  746   0.351   1.275   0.934  0.6188 -0.7051  0.3614
  249TIP3    H2  747   0.242   1.342   0.852  0.6206 -1.6655 -0.4417
  250TIP3   OH2  748   1.770   2.095   1.124 -0.0656 -0.1149  0.8771
  250TIP3    H1  749   1.693   2.082   1.069  0.6122  1.1759 -0.4655
  250TIP3    H2  750   1.801   2.006   1.143 -0.7752 -0.6171 -0.1948
  251TIP3   OH2  751   1.032   0.309   0.645  0.2197 -0.0370  0.0765
  251TIP3    H1  752   1.095   0.325   0.575 -0.7173  1.6442 -0.4260
  251TIP3    H2  753   0.948   0.337   0.610 -0.5329 -0.6126  1.3429
  252TIP3   OH2  754   0.289   0.395   2.360  0.0885 -0.2529  0.0719
  252TIP3    H1  755   0.212   0.422   2.312  0.4762 -1.3892 -1.2446
  252TIP3    H2  756   0.300   0.302   2.339  1.3314 -0.3224  0.8928
  253TIP3   OH2  757   1.365   2.159   2.047 -0.3567  0.0540  0.3807
  253TIP3    H1  758   1.291   2.159   2.108 -0.7650 -2.1574 -0.0136
  253TIP3    H2  759   1.441   2.139   2.101 -0.4744 -0.3097  0.4175
  254TIP3   OH2  760   1.140   1.908   1.881 -0.0691  0.6567 -0.1225
  254TIP3    H1  761   1.228   1.933   1.854  0.4261  0.4072  1.1797
  254TIP3    H2  762   1.106   1.857   1.807 -0.3701  3.3745 -2.0283
  255TIP3   OH2  763   1.444   0.608   0.816 -0.4718  0.0744 -0.8598
  255TIP3    H1  764   1.349   0.616   0.829 -0.2626  2.9414 -0.2547
  255TIP3    H2  765   1.482   0.640   0.898  0.9873  0.3183 -1.5993
  256TIP3   OH2  766   1.645   1.604   1.674  1.1691  0.2742  0.1875
  256TIP3    H1  767   1.569   1.657   1.651  1.3219  0.8050  0.9023
  256TIP3    H2  768   1.610   1.516   1.686  0.8493  0.2877 -0.5629
  257TIP3   OH2  769   2.212   2.438   1.742 -0.1311 -0.0725 -0.7282
  257TIP3    H1  770   2.208   2.419   1.835 -2.0985 -0.3435 -0.8150
  257TIP3    H2  771   2.246   2.527   1.736 -3.3859  1.4086  0.5304
  258TIP3   OH2  772   1.741   0.171   2.243 -0.1283  0.2332  0.1567
  258TIP3    H1  773   1.738   0.127   2.328 -0.1077 -1.7961 -0.8185
  258TIP3    H2  774   1.683   0.118   2.187 -1.4100  2.4271 -0.7304
  259TIP3   OH2  775   0.329   2.018   1.369 -0.0142  0.0900  0.2490
  259TIP3    H1  776   0.308   1.964   1.446 -1.4116  0.2619  0.0172
  259TIP3    H2  777   0.290   2.103   1.389  1.4029  0.7728  0.2259
  260TIP3   OH2  778   0.056   1.668   2.498 -0.0463 -0.0621 -0.0090
  260TIP3    H1  779   0.095   1.751   2.471  1.1488 -0.6421 -0.1559
  260TIP3    H2  780  -0.038   1.681   2.488  0.1275  1.2132 -0.1820
  261TIP3   OH2  781   0.668   0.225   0.783 -0.4361  0.6975  0.3983
  261TIP3    H1  782   0.640   0.133   0.787 -1.2264  0.9776  2.1297
  261TIP3    H2  783   0.731   0.234   0.855 -0.3497  1.5075  0.2298
  262TIP3   OH2  784   1.580   1.988   2.170 -0.1929 -0.0214 -0.3015
  262TIP3    H1  785   1.504   1.938   2.199  0.0748 -0.3769 -0.2019
  262TIP3    H2  786   1.638   1.989   2.246  0.6972 -1.3103 -0.9285
  263TIP3   OH2  787   2.075   0.049   0.649 -0.2657  0.1487 -0.3524
  263TIP3    H1  788   1.999   0.105   0.667 -0.3222  0.1144 -0.4827
  263TIP3    H2  789   2.132   0.062   0.725 -1.0435 -0.9304  0.4556
  264TIP3   OH2  790   0.646   1.345   0.048 -0.4517  0.3052 -0.4709
  264TIP3    H1  791   0.621   1.414   0.110  0.5082 -0.0148  0.2991
  264TIP3    H2  792   0.633   1.385  -0.038  1.1644  1.8885 -0.0354
  265TIP3   OH2  793   2.314   0.383   1.594  0.3824 -0.2945 -0.7356
  265TIP3    H1  794   2.375   0.310   1.594 -0.1699 -0.7947  1.0786
  265TIP3    H2  795   2.230   0.343   1.572  0.3532  0.0665 -1.2939
  266TIP3   OH2  796   0.098   1.129   1.809  0.1300  0.1646  0.4325
  266TIP3    H1  797   0.025   1.091   1.857  0.8577 -1.3152  0.4612
  266TIP3    H2  798   0.112   1.068   1.736  1.7181  0.0413  0.7918
  267TIP3   OH2  799   1.589   0.586   0.126 -0.1219 -0.1174  0.0299
  267TIP3    H1  800   1.593   0.682   0.125 -3.0363  0.1121  0.5904
  267TIP3    H2  801   1.670   0.559   0.169  0.0597  2.1767  1.3101
  268TIP3   OH2  802   0.487   2.402   0.851  0.0935  0.7546  0.0476
  268TIP3    H1  803   0.542   2.402   0.772  0.1372 -2.7298 -0.0768
  268TIP3    H2  804   0.407   2.447   0.824  1.0031  1.7346 -1.2050
  269TIP3   OH2  805   2.374   1.986   1.319 -0.3239  0.2164  0.3249
  269TIP3    H1  806   2.440   1.954   1.257 -0.4754  1.9744 -0.8057
  269TIP3    H2  807   2.294   1.990   1.267 -0.1942  2.9182  0.1950
  270TIP3   OH2  808   1.537   0.216   1.688 -0.3162  0.0753  0.1484
  270TIP3    H1  809   1.543   0.304   1.653 -0.8459  0.5592  1.2382
  270TIP3    H2  810   1.480   0.224   1.765  0.8954 -0.9112  1.2042
  271TIP3   OH2  811   2.154   0.623   1.144  0.1028  0.2032  0.1425
  271TIP3    H1  812   2.112   0.707   1.131 -0.7676 -0.4092 -1.1829
  271TIP3    H2  813   2.213   0.613   1.069 -0.6342 -0.8366 -0.3242
  272TIP3   OH2  814   0.852   1.117   0.557 -0.4007 -0.4353 -0.1691
  272TIP3    H1  815   0.895   1.039   0.523  1.1414  0.5591 -0.5995
  272TIP3    H2  816   0.918   1.158   0.614 -1.2672  0.4186  0.2549
  273TIP3   OH2  817   2.065   1.281   2.398 -0.0969 -0.6119  0.4341
  273TIP3    H1  818   2.074   1.202   2.451 -0.3049  0.5512  2.2812
  273TIP3    H2  819   2.144   1.331   2.416 -0.2693 -0.0975 -0.2136
  274TIP3   OH2  820   2.475   1.658   0.290  0.3536 -0.0986  0.1487
  274TIP3    H1  821   2.443   1.568   0.299 -1.0917  0.1378 -1.8852
  274TIP3    H2  822   2.516   1.661   0.203  2.1412  0.7540  0.9579
  275TIP3   OH2  823   0.486   1.870   0.943 -0.0647 -0.1278  0.1911
  275TIP3    H1  824   0.537   1.896   0.866 -0.8654  1.6677  0.2324
  275TIP3    H2  825   0.540   1.802   0.984  0.9105 -0.3300 -1.3241
  276TIP3   OH2  826   1.395   2.421   2.247  0.1238  0.1474  0.1514
  276TIP3    H1  827   1.406   2.512   2.218 -1.1894  0.5223  0.7172
  276TIP3    H2  828   1.300   2.410   2.254  0.2750 -1.1687  0.4261
  277TIP3   OH2  829   0.233   1.961   0.817  0.4407 -0.8284  0.6105
  277TIP3    H1  830   0.295   1.969   0.890 -0.9662 -1.8015  1.9752
  277TIP3    H2  831   0.219   1.867   0.807 -0.1500 -0.6572 -0.2581
  278TIP3   OH2  832   0.692   1.261   1.574 -0.9611 -0.1306 -0.6119
  278TIP3    H1  833   0.649   1.347   1.581  1.2142  0.8749  3.2088
  278TIP3    H2  834   0.785   1.282   1.564 -0.2776 -1.9739  1.3693
  279TIP3   OH2  835   1.146   1.450   0.758  0.5198  0.1277 -0.4304
  279TIP3    H1  836   1.065   1.461   0.809  0.4634 -0.3315 -0.4181
  279TIP3    H2  837   1.215   1.481   0.817  0.6266 -1.7744  0.5200
  280TIP3   OH2  838   1.242   0.498   1.101 -0.0679 -0.4011  0.1287
  280TIP3    H1  839   1.245   0.412   1.058  1.8376 -0.3149 -0.0023
  280TIP3    H2  840   1.241   0.561   1.028 -0.7193 -0.2930  0.2253
  281TIP3   OH2  841   0.629   2.093   0.558 -0.2199 -0.5191 -0.4876
  281TIP3    H1  842   0.703   2.142   0.522  0.1755 -0.2134  0.7110
  281TIP3    H2  843   0.558   2.156   0.563  0.3431  0.0091  1.2310
  282TIP3   OH2  844   1.847   0.827   0.241  0.0225 -0.0875 -0.6646
  282TIP3    H1  845   1.864   0.733   0.240  0.1289 -0.1450  1.4655
  282TIP3    H2  846   1.771   0.838   0.183  0.3573 -1.3907 -1.3888
  283TIP3   OH2  847   0.551   0.039   2.334  0.0293  0.0429  0.2270
  283TIP3    H1  848   0.541  -0.041   2.282 -1.8396 -0.6694  1.5829
  283TIP3    H2  849   0.629   0.081   2.298  0.0343 -1.4810 -1.7074
  284TIP3   OH2  850   0.519   1.348   1.868 -0.2820 -0.1068 -0.1800
  284TIP3    H1  851   0.442   1.390   1.830 -0.2904 -0.6253 -0.7536
  284TIP3    H2  852   0.488   1.260   1.892 -0.4620  0.4038  1.6463
  285TIP3   OH2  853   0.034   0.768   1.564  0.1136 -0.5683  0.6906
  285TIP3    H1  854  -0.049   0.730   1.535  0.5663 -1.3915  0.4195
  285TIP3    H2  855   0.064   0.820   1.489 -0.7334  0.7410  1.2302
  286TIP3   OH2  856   1.711   1.280   1.076 -0.5824 -0.6597  0.0847
  286TIP3    H1  857   1.728   1.208   1.137  0.6787 -0.6912 -0.2612
  286TIP3    H2  858   1.798   1.306   1.046 -1.1834 -1.2302 -2.3511
  287TIP3   OH2  859   2.388   1.416   0.220  0.2170  0.3888 -0.3104
  287TIP3    H1  860   2.439   1.336   0.213  1.4894  1.0762  0.7088
  287TIP3    H2  861   2.343   1.424   0.136  1.4973 -0.4427 -1.0993
  288TIP3   OH2  862   1.154   0.062   0.675 -0.2709 -0.1942  0.0475
  288TIP3    H1  863   1.110   0.147   0.673 -0.1642 -0.1464 -0.7579
  288TIP3    H2  864   1.242   0.080   0.640 -0.5309 -0.7804 -0.9483
  289TIP3   OH2  865   0.190   0.014   2.501 -0.0852 -0.5364 -0.2777
  289TIP3    H1  866   0.267   0.065   2.526  0.4276 -1.6310  0.4395
  289TIP3    H2  867   0.207  -0.011   2.410 -0.3493  0.5552 -0.6414
  290TIP3   OH2  868   1.308   1.856   1.484  0.0110 -0.1976 -0.1915
  290TIP3    H1  869   1.253   1.932   1.464  0.1781  0.4777  1.6534
  290TIP3    H2  870   1.394   1.878   1.449 -0.5877 -0.7605 -2.0869
  291TIP3   OH2  871   1.878   1.195   0.252  0.0091  0.0810 -0.0318
  291TIP3    H1  872   1.914   1.153   0.173  0.2688  1.6901 -0.8114
  291TIP3    H2  873   1.808   1.136   0.280  1.2123 -1.5466 -0.2863
  292TIP3   OH2  874   1.592   0.755   2.048  0.8863 -0.0356 -0.0629
  292TIP3    H1  875   1.626   0.666   2.034 -0.4201 -0.6079  0.2572
  292TIP3    H2  876   1.554   0.752   2.136  0.9589  0.8919  0.0054
  293TIP3   OH2  877   0.893   1.664   1.873 -0.1623 -0.3405  0.6106
  293TIP3    H1  878   0.805   1.628   1.888  0.1565 -2.3535 -1.7270
  293TIP3    H2  879   0.949   1.615   1.933  0.0026 -2.7990 -1.3623
  294TIP3   OH2  880   0.731   0.748   2.196 -0.0983 -0.1336  0.3936
  294TIP3    H1  881   0.746   0.723   2.288 -1.3814  0.5285  0.8176
  294TIP3    H2  882   0.659   0.691   2.168 -1.1445  1.1009  0.4852
  295TIP3   OH2  883   0.984   1.262   1.088 -0.0103  0.7237 -0.3339
  295TIP3    H1  884   1.036   1.249   1.009  1.2015  1.4923  0.3103
  295TIP3    H2  885   0.908   1.311   1.058  0.7966  1.6524 -0.9156
  296TIP3   OH2  886   1.588   0.444   1.552 -0.8752 -0.0169 -0.4011
  296TIP3    H1  887   1.556   0.480   1.469  1.3274  1.3436 -0.7685
  296TIP3    H2  888   1.605   0.521   1.606 -0.1961 -0.7673  0.4738
  297TIP3   OH2  889   0.096   0.809   1.270 -0.1332 -0.4201  0.1545
  297TIP3    H1  890   0.102   0.842   1.181 -0.6213 -0.3364  0.1465
  297TIP3    H2  891   0.005   0.781   1.279 -0.3359  0.4259  0.9219
  298TIP3   OH2  892   1.828   0.545   0.249  0.0495 -0.6462 -0.0692
  298TIP3    H1  893   1.907   0.522   0.200 -0.2979 -1.9444 -0.0747
  298TIP3    H2  894   1.850   0.526   0.340  0.2934  0.6143  0.1494
  299TIP3   OH2  895   1.372   2.003   1.831  0.3085 -0.0275  0.3542
  299TIP3    H1  896   1.360   2.052   1.912 -0.3278 -0.0861  0.2995
  299TIP3    H2  897   1.431   2.057   1.778  0.8298 -0.0492  0.9005
  300TIP3   OH2  898   0.385   2.065   0.441  0.4282  0.2456  0.4873
  300TIP3    H1  899   0.476   2.042   0.459  0.2594  0.3668  1.5740
  300TIP3    H2  900   0.335   1.988   0.469  0.2750 -0.5284 -1.6807
  301TIP3   OH2  901   0.839   1.691   1.358  0.0880 -0.3932 -0.0884
  301TIP3    H1  902   0.764   1.726   1.310  0.2918 -1.3442 -1.1285
  301TIP3    H2  903   0.805   1.674   1.446 -1.0245 -1.1082 -0.6308
  302TIP3   OH2  904   1.209   2.119   1.537 -0.2801  0.3818 -0.2493
  302TIP3    H1  905   1.160   2.116   1.455  0.4139 -0.6369 -0.6439
  302TIP3    H2  906   1.142   2.116   1.606 -0.7595 -1.7731 -0.7683
  303TIP3   OH2  907   2.347   2.003   0.938 -0.0191  0.3117 -0.4363
  303TIP3    H1  908   2.300   2.066   0.883  0.9805  1.7953  0.3608
  303TIP3    H2  909   2.302   2.007   1.023 -3.1929 -3.7839 -1.5801
  304TIP3   OH2  910   0.557   2.132   2.394  0.3293 -0.3292  0.1725
  304TIP3    H1  911   0.645   2.170   2.390 -0.1331  0.8215  0.5019
  304TIP3    H2  912   0.562   2.067   2.465  0.5883  0.6631  1.0944
  305TIP3   OH2  913   1.686   0.965   0.624  0.2481 -0.0049  0.0611
  305TIP3    H1  914   1.744   1.040   0.638  0.3129 -0.1935  0.8474
  305TIP3    H2  915   1.720   0.897   0.681  0.1783 -0.6407 -0.6318
  306TIP3   OH2  916   1.286   1.292   1.281 -0.5696 -0.0450 -0.1990
  306TIP3    H1  917   1.283   1.367   1.341 -1.7393  0.4991 -0.8905
  306TIP3    H2  918   1.199   1.291   1.240 -0.6609 -1.9241 -0.0442
  307TIP3   OH2  919   0.449   1.033   1.019 -0.0907  0.3145  0.0900
  307TIP3    H1  920   0.515   0.998   1.079 -0.2457  1.1516  0.7742
  307TIP3    H2  921   0.395   1.091   1.074 -1.8417 -0.8765 -0.2803
  308TIP3   OH2  922   0.361   1.414   2.230  0.2350  0.2891  0.3411
  308TIP3    H1  923   0.453   1.409   2.207  0.4299  1.1640  0.9127
  308TIP3    H2  924   0.327   1.487   2.177 -0.0432  0.2093  0.4068
  309TIP3   OH2  925   1.855   1.166   0.646  0.1365  1.1050 -0.2372
  309TIP3    H1  926   1.916   1.169   0.720 -0.9431 -0.2769  0.7652
  309TIP3    H2  927   1.810   1.250   0.649  1.9135  2.1308 -0.9722
  310TIP3   OH2  928   1.652   1.552   1.299  0.3381  0.4388  0.3752
  310TIP3    H1  929   1.590   1.493   1.257  1.6648  0.7367 -2.2204
  310TIP3    H2  930   1.708   1.494   1.352 -0.3252 -0.2015  0.3882
  311TIP3   OH2  931   0.805   2.165   0.222 -0.3050  0.2113  0.7347
  311TIP3    H1  932   0.744   2.095   0.197 -0.5435  0.9388 -0.8828
  311TIP3    H2  933   0.859   2.127   0.291  0.1439 -1.8830 -0.6753
  312TIP3   OH2  934   0.216   1.703   1.348  0.0086  0.9983  0.0474
  312TIP3    H1  935   0.221   1.710   1.253  1.7200 -1.8202 -0.1681
  312TIP3    H2  936   0.123   1.687   1.365 -0.4119  2.0671 -1.0397
  313TIP3   OH2  937   0.642   1.045   1.426 -0.7149  0.1689  0.0558
  313TIP3    H1  938   0.718   1.100   1.410  0.1444 -0.6598  1.1316
  313TIP3    H2  939   0.593   1.091   1.494 -0.9349  0.4807 -0.3143
  314TIP3   OH2  940   1.732   1.122   1.326 -0.1610  0.4833 -0.3564
  314TIP3    H1  941   1.639   1.114   1.303 -0.3549  2.2329 -0.3551
  314TIP3    H2  942   1.732   1.136   1.421  0.3905 -3.0069  0.2805
  315TIP3   OH2  943   1.223   0.119   1.764 -0.1047 -0.7765  0.4773
  315TIP3    H1  944   1.137   0.128   1.722  0.0249 -0.7537  0.2211
  315TIP3    H2  945   1.220   0.033   1.805  0.6004 -1.7812 -1.4739
  316TIP3   OH2  946   0.735   2.107   1.476  0.2281  0.5937  0.4055
  316TIP3    H1  947   0.826   2.081   1.458  0.1420  0.1031  0.6593
  316TIP3    H2  948   0.727   2.194   1.438  0.6229  0.3756 -0.1935
  317TIP3   OH2  949   2.097   1.889   0.075  0.2360  0.2966  0.5164
  317TIP3    H1  950   2.181   1.923   0.108 -0.1027 -0.6346  2.4410
  317TIP3    H2  951   2.057   1.846   0.150 -1.0730 -1.0417 -0.8817
  318TIP3   OH2  952   2.274   1.044   0.480  0.2008 -0.2020 -0.7873
  318TIP3    H1  953   2.186   1.007   0.483  0.3168 -0.4359  0.1536
  318TIP3    H2  954   2.298   1.043   0.387  0.0827 -2.2425 -0.8418
  319TIP3   OH2  955   2.448   0.234   0.333 -0.2433 -0.1821 -0.5285
  319TIP3    H1  956   2.509   0.280   0.391 -0.7145 -0.9894  0.6539
  319TIP3    H2  957   2.487   0.147   0.321  0.5527  0.4139 -2.5946
  320TIP3   OH2  958   1.347   1.335   0.275  0.2808 -0.1834  0.4792
  320TIP3    H1  959   1.291   1.388   0.218  1.3237  2.4337  1.7334
  320TIP3    H2  960   1.319   1.358   0.363  0.2625 -2.3994  1.1138
  321TIP3   OH2  961   0.367   1.309   1.409 -0.3863  0.6386 -0.1499
  321TIP3    H1  962   0.418   1.349   1.480  0.4420 -1.4969  0.5221
  321TIP3    H2  963   0.282   1.353   1.414  0.3397  2.0169  0.7844
  322TIP3   OH2  964   0.934   1.912   0.769  0.2758 -0.2188  0.2665
  322TIP3    H1  965   1.013   1.966   0.776  0.0692 -0.0842  1.7707
  322TIP3    H2  966   0.913   1.887   0.859 -1.7706  0.2707 -0.0252
  323TIP3   OH2  967   1.239   0.226   2.454  0.0964  0.2953  0.2350
  323TIP3    H1  968   1.237   0.168   2.530  0.3227  2.2748  1.8250
  323TIP3    H2  969   1.323   0.272   2.461 -1.1666  2.6596  0.5024
  324TIP3   OH2  970   1.900   1.607   0.901  0.2993  0.1233  0.6094
  324TIP3    H1  971   1.924   1.533   0.956 -2.6517  0.0234  1.9468
  324TIP3    H2  972   1.938   1.586   0.815  2.1247 -1.3842  1.7041
  325TIP3   OH2  973   0.922   1.549   0.363 -0.0992  0.6868 -0.0063
  325TIP3    H1  974   0.850   1.494   0.393  0.6370  0.5244  1.5937
  325TIP3    H2  975   0.958   1.587   0.444  2.5077 -0.3953 -0.5360
  326TIP3   OH2  976   1.665   0.404   0.750  0.3728  0.1835  0.6636
  326TIP3    H1  977   1.632   0.324   0.708  1.3152 -0.2062  0.6525
  326TIP3    H2  978   1.589   0.462   0.753  0.4381  0.5773 -2.3693
  327TIP3   OH2  979   2.300   1.705   2.422  0.6219  0.2021 -0.1242
  327TIP3    H1  980   2.222   1.741   2.466  1.6719  0.4404  1.6089
  327TIP3    H2  981   2.288   1.729   2.330 -0.7139  1.3999  0.3206
  328TIP3   OH2  982   0.745   0.921   0.298  0.7832 -0.1431  0.0645
  328TIP3    H1  983   0.657   0.952   0.316  1.0178 -0.2627  1.5390
  328TIP3    H2  984   0.777   0.978   0.228  0.4423  1.6078  1.2805
  329TIP3   OH2  985   1.336   2.033   0.428 -0.4129 -0.4033 -0.2727
  329TIP3    H1  986   1.324   2.121   0.393  0.5614 -0.3180 -0.4169
  329TIP3    H2  987   1.316   2.041   0.521  0.2773  0.1088 -0.1621
  330TIP3   OH2  988   1.110   2.379   0.888  0.1741 -0.1303  0.6205
  330TIP3    H1  989   1.019   2.408   0.888  0.2227  0.0461 -0.1189
  330TIP3    H2  990   1.150   2.425   0.814  1.1285  0.6007  1.5673
  331TIP3   OH2  991   0.069   2.430   0.614 -0.0027  0.5415 -0.4904
  331TIP3    H1  992  -0.006   2.388   0.655 -0.2478 -0.6261 -2.0794
  331TIP3    H2  993   0.066   2.403   0.523  1.9965  0.9754 -0.7375
  332TIP3   OH2  994   0.247   0.038   0.808 -0.5076  0.2897 -0.6935
  332TIP3    H1  995   0.185   0.052   0.880 -0.0527  0.9485 -0.4245
  332TIP3    H2  996   0.195  -0.005   0.740 -0.4695 -2.3388  0.8065
  333TIP3   OH2  997   1.234   0.400   1.788  0.1097  0.5853  0.5698
  333TIP3    H1  998   1.200   0.418   1.700  1.6653  0.1163 -0.1502
  333TIP3    H2  999   1.259   0.308   1.786  3.3413  1.3374  0.3331
  334TIP3   OH2 1000   0.500   1.235   0.834 -0.3978  0.0706 -0.0098
  334TIP3    H1 1001   0.512   1.177   0.760 -1.3339  0.2657 -0.3214
  334TIP3    H2 1002   0.562   1.203   0.900 -0.4107 -0.8436 -0.4277
  335TIP3   OH2 1003   1.420   1.661   0.166 -0.1359 -0.5752  0.1526
  335TIP3    H1 1004   1.349   1.599   0.151  0.8896 -1.8533  0.4121
  335TIP3    H2 1005   1.402   1.698   0.252 -1.5933  0.6986 -0.6317
  336TIP3   OH2 1006   2.311   1.944   0.221 -0.1799 -0.3587  0.6903
  336TIP3    H1 1007   2.326   2.028   0.264  1.4039  0.8085 -1.9166
  336TIP3    H2 1008   2.393   1.896   0.234  0.1534 -0.1623 -0.5358
  337TIP3   OH2 1009   0.136   1.932   2.376  0.3087 -1.0475 -0.7864
  337TIP3    H1 1010   0.110   1.998   2.440  1.2191 -0.3229 -1.1400
  337TIP3    H2 1011   0.086   1.954   2.298  0.0135 -1.2693 -0.6623
  338TIP3   OH2 1012   0.588   0.075   1.802 -0.3926 -0.8651  0.4767
  338TIP3    H1 1013   0.626   0.043   1.720 -0.9708  3.2218 -1.6468
  338TIP3    H2 1014   0.494   0.072   1.787 -0.4839  1.8816 -0.0375
  339TIP3   OH2 1015   0.984   2.285   1.216  0.2025 -0.5762 -0.3339
  339TIP3    H1 1016   0.945   2.237   1.143 -0.8446 -1.5561  0.8254
  339TIP3    H2 1017   1.072   2.305   1.186  0.0090 -1.4845 -1.6363
  340TIP3   OH2 1018   2.468   1.491   0.961  0.2355  0.3539 -0.0792
  340TIP3    H1 1019   2.483   1.495   1.055  0.4907  1.0915 -0.1483
  340TIP3    H2 1020   2.434   1.577   0.938 -4.3640 -1.1294  0.0865
  341TIP3   OH2 1021   0.129   0.615   2.023 -0.4271  0.0495 -0.0328
  341TIP3    H1 1022   0.122   0.587   1.931 -0.0424 -1.7040  0.4214
  341TIP3    H2 1023   0.217   0.653   2.030  0.0697 -1.0429 -0.1134
  342TIP3   OH2 1024   1.807   1.151   1.608 -0.2205  0.1717  0.0313
  342TIP3    H1 1025   1.898   1.180   1.623  0.4013 -1.2305 -0.8144
  342TIP3    H2 1026   1.804   1.064   1.647 -0.1950 -1.1968 -2.8035
  343TIP3   OH2 1027   1.547   0.980   0.381 -0.3418 -0.2773  0.3933
  343TIP3    H1 1028   1.567   1.073   0.371  2.5637 -0.9843 -1.9481
  343TIP3    H2 1029   1.600   0.952   0.455 -0.3658 -0.2566  0.4185
  344TIP3   OH2 1030   0.275   0.095   1.137 -0.4772 -1.0616 -0.4279
  344TIP3    H1 1031   0.296   0.167   1.077 -1.0279  0.1270  0.7661
  344TIP3    H2 1032   0.198   0.053   1.097 -1.1910  0.0715 -0.2767
  345TIP3   OH2 1033   0.254   0.547   0.604 -0.2480  0.1942  0.2665
  345TIP3    H1 1034   0.318   0.529   0.673  1.3650 -1.0184 -1.4404
  345TIP3    H2 1035   0.291   0.622   0.556 -0.8623  0.4207  0.1305
  346TIP3   OH2 1036   0.402   0.847   0.196  0.8422 -0.2668  0.2033
  346TIP3    H1 1037   0.454   0.804   0.128 -1.1279 -1.0941 -0.8563
  346TIP3    H2 1038   0.329   0.886   0.148  0.2576  0.5160  1.6911
  347TIP3   OH2 1039   1.415   1.919  -0.008  0.3384 -0.2530 -0.3905
  347TIP3    H1 1040   1.432   1.851   0.057  0.5749 -0.9404 -1.1581
  347TIP3    H2 1041   1.330   1.954   0.016 -0.1485 -1.3584 -0.4301
  348TIP3   OH2 1042   1.273   1.009   1.740  0.1434 -0.3190 -0.1365
  348TIP3    H1 1043   1.359   0.980   1.771 -0.3347 -0.0115  1.5413
  348TIP3    H2 1044   1.293   1.071   1.670  1.2292 -2.4372 -1.8454
  349TIP3   OH2 1045   2.006   0.261   0.307  0.1238  0.0416 -0.7449
  349TIP3    H1 1046   2.043   0.279   0.221 -0.6407  2.4206 -0.6381
  349TIP3    H2 1047   1.986   0.347   0.344 -0.2951 -0.9326  1.5033
  350TIP3   OH2 1048   1.009   1.661   0.596  0.7558 -0.3701  0.2477
  350TIP3    H1 1049   0.964   1.742   0.621  0.2525 -0.2040 -1.1084
  350TIP3    H2 1050   1.079   1.652   0.660  0.8368  1.1609  0.4244
  351TIP3   OH2 1051   0.991   1.908   1.121  0.2154 -0.1257 -0.5041
  351TIP3    H1 1052   0.941   1.985   1.094 -0.0857  0.6532  2.0151
  351TIP3    H2 1053   1.080   1.926   1.090  0.5351  2.1080  1.3967
  352TIP3   OH2 1054   0.965   1.936   1.405 -0.3050  0.0276  0.0773
  352TIP3    H1 1055   0.918   1.855   1.426 -1.6838  0.5828 -0.7614
  352TIP3    H2 1056   0.986   1.928   1.312 -0.0965  0.4663  0.0857
  353TIP3   OH2 1057   0.412   1.462   1.173  0.2863 -0.1066 -0.1885
  353TIP3    H1 1058   0.359   1.392   1.212  1.7166 -1.7111 -0.9964
  353TIP3    H2 1059   0.493   1.462   1.224  0.4409  0.7627 -0.4151
  354TIP3   OH2 1060   1.882   0.155   2.014 -0.0422  0.4353 -0.4937
  354TIP3    H1 1061   1.842   0.159   2.101 -1.6304  0.6920 -1.2051
  354TIP3    H2 1062   1.829   0.092   1.966  1.0355  0.0340 -1.1899
  355TIP3   OH2 1063   2.005   1.593   0.624  0.1731 -0.1066 -0.0503
  355TIP3    H1 1064   1.914   1.607   0.600  0.6235  1.2481 -1.0845
  355TIP3    H2 1065   2.051   1.585   0.540  1.0502 -0.5340  0.4533
  356TIP3   OH2 1066   0.740   1.367   1.031  0.2072 -0.1808  0.7479
  356TIP3    H1 1067   0.676   1.358   1.102  0.1290  0.0966  0.7147
  356TIP3    H2 1068   0.725   1.290   0.976  0.1872 -0.3353  0.9678
  357TIP3   OH2 1069   2.444   1.261   0.554 -0.5329  0.2573  0.4043
  357TIP3    H1 1070   2.401   1.178   0.532 -0.7148  0.2733  0.6986
  357TIP3    H2 1071   2.373   1.320   0.579 -0.8319  1.6071 -3.0243
  358TIP3   OH2 1072   0.324   1.308   0.087 -0.1055  0.1760 -0.3483
  358TIP3    H1 1073   0.385   1.283   0.157  0.1823 -0.4279 -0.8081
  358TIP3    H2 1074   0.335   1.403   0.079  2.9597 -0.2006 -2.3665
  359TIP3   OH2 1075   2.049   0.461   1.722  0.2829  0.1180 -0.1930
  359TIP3    H1 1076   1.988   0.390   1.741  1.7649 -0.9887  0.6679
  359TIP3    H2 1077   2.024   0.492   1.634 -2.0820  0.3928  0.5049
  360TIP3   OH2 1078   0.408   0.327   0.352 -0.0267  0.4505 -0.9197
  360TIP3    H1 1079   0.414   0.237   0.322  1.6530  0.7039 -1.4808
  360TIP3    H2 1080   0.484   0.337   0.410 -2.2333  0.4555  2.2224
  361TIP3   OH2 1081   1.671   1.980   0.393 -0.7940  0.3398  0.3749
  361TIP3    H1 1082   1.691   2.035   0.469 -0.8092 -1.0497  1.4153
  361TIP3    H2 1083   1.575   1.985   0.385 -0.6428  2.0573 -0.8024
  362TIP3   OH2 1084   1.140   2.048   2.441  0.5490 -0.1494  0.3195
  362TIP3    H1 1085   1.073   1.988   2.474  0.0153  0.5747  0.5925
  362TIP3    H2 1086   1.133   2.041   2.346 -0.7849  0.8071  0.3091
  363TIP3   OH2 1087   1.361   0.186   1.115 -0.6391 -0.1376  0.2574
  363TIP3    H1 1088   1.451   0.206   1.140 -1.0950  0.9179  1.1357
  363TIP3    H2 1089   1.354   0.219   1.025 -0.4859  0.8690  0.6074
  364TIP3   OH2 1090   0.556   0.078   1.092  0.0535 -0.2545  0.2604
  364TIP3    H1 1091   0.486   0.043   1.148 -1.4565  0.5736 -1.0317
  364TIP3    H2 1092   0.539   0.039   1.006  1.1824  0.0036 -0.0998
  365TIP3   OH2 1093   2.199   2.004   1.545 -0.3010 -0.5326  0.1488
  365TIP3    H1 1094   2.123   1.968   1.500 -0.7611  0.7538 -0.1711
  365TIP3    H2 1095   2.268   2.005   1.478 -0.8538  0.9533 -0.4502
  366TIP3   OH2 1096   2.136   2.350   1.028 -0.1881 -0.3374  0.2092
  366TIP3    H1 1097   2.179   2.430   0.998 -1.5272  0.3600  0.0666
  366TIP3    H2 1098   2.161   2.342   1.120  0.8046 -0.3449 -0.0500
  367TIP3   OH2 1099   1.035   0.881  -0.005  0.3148  0.0745  0.2844
  367TIP3    H1 1100   1.007   0.961   0.040 -0.2267  0.0930 -0.0817
  367TIP3    H2 1101   0.985   0.811   0.037  1.2903 -0.1742  1.0746
  368TIP3   OH2 1102  -0.014   1.393   1.939  0.5381 -0.4761  0.8162
  368TIP3    H1 1103   0.061   1.355   1.985  0.0458 -1.1276  1.0951
  368TIP3    H2 1104  -0.015   1.349   1.854  0.5830 -0.3204  0.7328
  369TIP3   OH2 1105   0.861   1.286   1.856 -0.0336 -0.4581  0.8356
  369TIP3    H1 1106   0.802   1.355   1.826 -0.3183 -0.8161  0.5669
  369TIP3    H2 1107   0.949   1.321   1.838 -0.1626  0.0251  1.1294
  370TIP3   OH2 1108   0.523   0.336   2.088 -0.7908  0.3625  0.1260
  370TIP3    H1 1109   0.469   0.257   2.086 -1.3073  0.7088  0.2245
  370TIP3    H2 1110   0.591   0.317   2.153 -1.2881  0.2403  0.6163
  371TIP3   OH2 1111   0.896   0.865   0.512 -0.3659  0.3244  0.1603
  371TIP3    H1 1112   0.863   0.879   0.423  1.8330  1.6793 -0.5206
  371TIP3    H2 1113   0.962   0.797   0.502 -1.2048 -0.6520  1.0731
  372TIP3   OH2 1114   0.650   0.824   1.302 -0.1651 -0.5686  0.5443
  372TIP3    H1 1115   0.561   0.804   1.272  0.2723 -0.6371 -0.7635
  372TIP3    H2 1116   0.640   0.904   1.353 -0.9648 -0.4891  0.2771
  373TIP3   OH2 1117   0.387   1.697   0.464  0.2928 -0.5477  0.0302
  373TIP3    H1 1118   0.477   1.729   0.459  0.0917 -0.1052 -1.1525
  373TIP3    H2 1119   0.387   1.636   0.538  1.2987  0.2555  0.7205
  374TIP3   OH2 1120   0.877   1.160   1.308  0.2073 -0.1234 -0.3123
  374TIP3    H1 1121   0.954   1.148   1.362 -0.2441 -1.2711  0.1012
  374TIP3    H2 1122   0.908   1.209   1.232  1.2701 -0.3232 -0.0134
  375TIP3   OH2 1123   2.094   2.418   1.374  0.3259  0.5447 -0.6149
  375TIP3    H1 1124   2.090   2.402   1.468  1.3126  1.5087 -0.3983
  375TIP3    H2 1125   2.041   2.348   1.336 -0.8874  0.7076  0.7088
  376TIP3   OH2 1126   0.911   0.206   1.713  0.0183  0.0923  0.2549
  376TIP3    H1 1127   0.858   0.253   1.777  0.6912  1.3847 -0.0882
  376TIP3    H2 1128   0.898   0.255   1.632 -0.5445 -1.3140 -0.5227
  377TIP3   OH2 1129   2.380   1.386   1.677  0.2356  0.0740  0.8073
  377TIP3    H1 1130   2.321   1.461   1.664 -0.7480 -1.0288 -2.0962
  377TIP3    H2 1131   2.322   1.310   1.678  1.4496 -1.0335 -1.8604
  378TIP3   OH2 1132   0.938   1.528   0.936  0.6637 -0.1106 -0.4556
  378TIP3    H1 1133   0.853   1.511   0.976  0.1124  1.0847 -1.0825
  378TIP3    H2 1134   0.993   1.559   1.008  1.2688 -2.8824  0.4197
  379TIP3   OH2 1135   1.978   1.352   0.979  0.5508  0.2985  0.5479
  379TIP3    H1 1136   1.998   1.354   1.073 -1.0982 -0.2538  0.9566
  379TIP3    H2 1137   2.013   1.269   0.949  0.8686  0.3632  0.7389
  380TIP3   OH2 1138   0.994   0.878   2.207  0.1318  0.0083  0.3904
  380TIP3    H1 1139   0.898   0.883   2.202  0.0593 -0.7391  0.8197
  380TIP3    H2 1140   1.013   0.886   2.301  0.5609  1.1461  0.2169
  381TIP3   OH2 1141   1.402   2.384   0.549 -0.6167  0.3836 -0.0023
  381TIP3    H1 1142   1.471   2.389   0.483 -0.0790 -0.5847  0.4718
  381TIP3    H2 1143   1.353   2.305   0.526  0.5937 -0.9233  1.6986
  382TIP3   OH2 1144   0.335   2.062   0.153  0.0273  0.3948  0.6599
  382TIP3    H1 1145   0.313   1.969   0.158  1.6011 -0.0265  0.1005
  382TIP3    H2 1146   0.326   2.093   0.244 -1.5862 -0.0014  0.6825
  383TIP3   OH2 1147   0.292   1.683   0.808 -0.2959  0.1466 -0.7253
  383TIP3    H1 1148   0.290   1.604   0.753  1.5210 -0.1092 -0.4684
  383TIP3    H2 1149   0.384   1.697   0.828 -0.5484  2.4960 -0.9344
  384TIP3   OH2 1150   0.175   0.286   0.575 -0.1405 -0.1846 -0.3896
  384TIP3    H1 1151   0.231   0.363   0.583  0.0576 -0.2442 -1.1059
  384TIP3    H2 1152   0.236   0.213   0.568 -0.3127 -0.2843 -0.8590
  385TIP3   OH2 1153   0.571   1.667   2.164  0.1017  0.0235  0.5516
  385TIP3    H1 1154   0.613   1.684   2.248 -0.6363 -1.0842  1.1763
  385TIP3    H2 1155   0.482   1.699   2.175  0.3389  0.9945 -0.2464
  386TIP3   OH2 1156   1.594   1.327   1.672  0.1408 -0.4294  0.3303
  386TIP3    H1 1157   1.541   1.282   1.737  0.8040 -0.8173  0.6061
  386TIP3    H2 1158   1.671   1.272   1.661  0.9425  0.6079  0.6388
  387TIP3   OH2 1159   0.651   1.220   2.214  0.0269  0.4252  0.3005
  387TIP3    H1 1160   0.613   1.166   2.284  0.9590 -0.7532 -0.0628
  387TIP3    H2 1161   0.646   1.165   2.136  1.7382  0.5239  0.0813
  388TIP3   OH2 1162   0.237   0.862   0.527 -0.5048 -0.3821  0.0968
  388TIP3    H1 1163   0.265   0.879   0.617 -0.1295  1.9612 -0.4050
  388TIP3    H2 1164   0.304   0.804   0.492  1.0509  1.1319  0.4397
  389TIP3   OH2 1165   1.475   1.431   1.094  0.0664  0.0361  0.1396
  389TIP3    H1 1166   1.415   1.369   1.136 -0.8814  1.6281  1.2126
  389TIP3    H2 1167   1.548   1.376   1.063 -0.3863 -1.5200  1.6685
  390TIP3   OH2 1168   0.943   2.396   1.713 -0.0183 -0.0620  0.3359
  390TIP3    H1 1169   0.925   2.379   1.621  1.6942 -0.3788  0.0193
  390TIP3    H2 1170   0.946   2.491   1.719  0.6943 -0.0478 -0.1283
  391TIP3   OH2 1171   0.326   1.762   2.213 -0.2177 -0.0077  0.2837
  391TIP3    H1 1172   0.276   1.737   2.135 -0.0796 -0.3067  0.2867
  391TIP3    H2 1173   0.264   1.809   2.268 -0.5268 -0.4874  0.3473
  392TIP3   OH2 1174   0.041   1.166   2.301  0.1265  0.3355 -0.1316
  392TIP3    H1 1175   0.105   1.169   2.230 -1.5112  1.7061 -1.6322
  392TIP3    H2 1176  -0.025   1.104   2.271 -0.3938  0.6472  0.3519
  393TIP3   OH2 1177   0.253   1.531   2.000  0.3990 -0.4417 -0.3499
  393TIP3    H1 1178   0.257   1.489   1.914 -1.5751 -0.6714 -0.3649
  393TIP3    H2 1179   0.202   1.610   1.986  0.8717  0.0231  0.4450
  394TIP3   OH2 1180   1.843   0.755   2.292 -0.5072  1.0034  0.4530
  394TIP3    H1 1181   1.910   0.726   2.229  0.2583 -0.0809  1.7058
  394TIP3    H2 1182   1.787   0.678   2.304 -1.0930  1.4421  0.5309
  395TIP3   OH2 1183   1.595   1.610   2.243  0.5096  0.1250  0.7119
  395TIP3    H1 1184   1.659   1.646   2.181 -1.0210  0.0791 -0.9688
  395TIP3    H2 1185   1.623   1.643   2.328  2.1970  0.8923 -0.0974
  396TIP3   OH2 1186   1.334   1.468   1.469 -0.1931 -0.2168  0.2215
  396TIP3    H1 1187   1.267   1.536   1.481  1.8134  2.0808 -0.7269
  396TIP3    H2 1188   1.369   1.455   1.557 -0.5666  0.0232  0.4117
  397TIP3   OH2 1189   0.292   1.885   1.597 -0.2811 -0.0679 -0.3071
  397TIP3    H1 1190   0.350   1.846   1.663  1.9771  0.2692 -1.9882
  397TIP3    H2 1191   0.249   1.810   1.556  1.8515 -0.6764 -1.5580
  398TIP3   OH2 1192   1.509   1.370   2.137 -0.1441 -0.5872 -0.1261
  398TIP3    H1 1193   1.557   1.447   2.166 -1.1807 -0.0206  0.1395
  398TIP3    H2 1194   1.495   1.319   2.217  0.6833 -1.1541 -0.3252
  399TIP3   OH2 1195   1.306   1.698   2.004  0.2255 -0.0657  0.0706
  399TIP3    H1 1196   1.260   1.775   1.971  0.1868 -0.0308  0.2045
  399TIP3    H2 1197   1.387   1.694   1.953 -0.1672 -0.4368 -0.5530
  400TIP3   OH2 1198   1.262   0.396   1.506  0.0114  0.1740  0.1224
  400TIP3    H1 1199   1.186   0.339   1.488  0.2026 -0.2535  0.6416
  400TIP3    H2 1200   1.260   0.460   1.435  0.1407 -0.8417 -0.8403
  401TIP3   OH2 1201   2.123   2.146   0.818 -0.3443  0.0476 -0.0805
  401TIP3    H1 1202   2.116   2.215   0.884 -1.3341 -1.2480  1.2154
  401TIP3    H2 1203   2.034   2.134   0.786 -0.4346 -1.5619  0.7092
  402TIP3   OH2 1204   1.908   1.961   1.613 -0.4429  0.0383  0.0532
  402TIP3    H1 1205   1.832   1.934   1.665 -0.9666  0.4715 -0.4656
  402TIP3    H2 1206   1.963   1.883   1.609 -0.3409  0.0194  1.3257
  403TIP3   OH2 1207   1.664   1.781   0.823 -0.2476  0.4912  0.2946
  403TIP3    H1 1208   1.742   1.725   0.831  0.5873  1.1650 -2.2788
  403TIP3    H2 1209   1.599   1.726   0.780 -0.7886  0.3336  1.2823
  404TIP3   OH2 1210   0.071   1.112   0.832  0.0068 -0.1461 -0.6063
  404TIP3    H1 1211   0.141   1.139   0.890 -0.3972  0.4999 -0.4080
  404TIP3    H2 1212   0.098   1.143   0.745 -0.6449  1.3452 -0.3209
  405TIP3   OH2 1213   1.127   2.436   2.260 -0.1599  0.3247  0.8201
  405TIP3    H1 1214   1.087   2.502   2.316 -0.2521  1.5380 -0.6146
  405TIP3    H2 1215   1.082   2.445   2.176  2.0731  0.7346 -0.4207
  406TIP3   OH2 1216   0.623   1.279   1.266  0.2380 -0.1270  0.3196
  406TIP3    H1 1217   0.696   1.242   1.316 -0.4228 -0.7576  0.8365
  406TIP3    H2 1218   0.548   1.223   1.287 -0.4088  0.5264 -0.1734
  407TIP3   OH2 1219   1.577   0.934   2.381 -0.3435 -0.4083 -0.6912
  407TIP3    H1 1220   1.631   0.926   2.302 -1.6575 -0.7299 -1.5822
  407TIP3    H2 1221   1.507   0.869   2.369 -0.3152 -0.7955  0.9566
  408TIP3   OH2 1222   1.044   0.626   1.834  0.2678  0.0109  0.0168
  408TIP3    H1 1223   1.051   0.683   1.758 -1.0456 -0.1556 -0.2512
  408TIP3    H2 1224   1.078   0.542   1.803 -0.0148  0.0142 -0.3100
  409TIP3   OH2 1225   0.440   0.563   1.134 -0.1008  0.3957 -0.2220
  409TIP3    H1 1226   0.507   0.588   1.070 -0.2418 -0.6068 -0.7743
  409TIP3    H2 1227   0.358   0.593   1.095 -0.0803  0.7719  0.0145
  410TIP3   OH2 1228   0.715   1.338   0.428 -0.7379  0.0932 -0.0104
  410TIP3    H1 1229   0.759   1.263   0.467  1.2827  1.9148  1.4921
  410TIP3    H2 1230   0.684   1.389   0.503 -2.2668  0.6678 -0.9832
  411TIP3   OH2 1231   2.349   2.383   1.288 -0.2130 -0.5102 -0.4282
  411TIP3    H1 1232   2.398   2.323   1.344 -2.1363 -1.8238 -0.0294
  411TIP3    H2 1233   2.265   2.395   1.334 -1.4826 -0.8522 -2.5034
  412TIP3   OH2 1234   1.099   1.540   2.020 -0.2522 -0.6010 -0.3974
  412TIP3    H1 1235   1.169   1.603   2.009 -0.4853 -0.5346 -1.6647
  412TIP3    H2 1236   1.129   1.481   2.090 -0.2636  1.1805  1.2002
  413TIP3   OH2 1237   1.316   0.947   0.028 -0.9033 -0.8830  0.0471
  413TIP3    H1 1238   1.253   0.887  -0.012 -2.0445 -0.5450  1.2707
  413TIP3    H2 1239   1.268   0.988   0.100  0.3334  0.3492  0.2099
  414TIP3   OH2 1240   2.146   2.368   2.014 -0.3486 -0.2578  0.1228
  414TIP3    H1 1241   2.115   2.287   2.055  1.2665 -0.6518  0.6722
  414TIP3    H2 1242   2.191   2.414   2.085 -0.5454  0.7477 -0.3862
  415TIP3   OH2 1243   1.144   0.704   0.591 -0.0409 -0.2947 -1.0543
  415TIP3    H1 1244   1.200   0.778   0.568  2.1704 -1.3434  0.6090
  415TIP3    H2 1245   1.169   0.635   0.529 -0.4493 -0.3662 -1.1410
  416TIP3   OH2 1246   1.192   0.693   0.242  0.7377  0.4058 -0.5132
  416TIP3    H1 1247   1.098   0.686   0.259  0.2988  1.5910 -2.1479
  416TIP3    H2 1248   1.222   0.763   0.300  0.3325  0.8761 -0.8575
  417TIP3   OH2 1249   1.849   0.697   1.332  0.0907 -0.0425  0.5757
  417TIP3    H1 1250   1.910   0.754   1.285  0.6220 -0.5841  0.5981
  417TIP3    H2 1251   1.903   0.624   1.362  0.0402  0.8735  3.0959
  418TIP3   OH2 1252   1.148   1.015   1.117 -0.2853 -0.5017 -0.2774
  418TIP3    H1 1253   1.108   1.093   1.155 -1.6097 -0.7837 -1.0372
  418TIP3    H2 1254   1.119   0.943   1.173  1.6883 -0.3900  0.9791
  419TIP3   OH2 1255   1.046   0.269   2.289  0.3471  0.3417 -0.1901
  419TIP3    H1 1256   1.086   0.336   2.233  0.4791  0.1037 -0.3836
  419TIP3    H2 1257   1.115   0.243   2.349  0.8343 -0.8598 -1.2353
  420TIP3   OH2 1258   2.211   1.520   1.988  0.2704 -0.1497 -0.3981
  420TIP3    H1 1259   2.288   1.500   1.935  1.6412 -0.7278  1.7036
  420TIP3    H2 1260   2.160   1.438   1.988  0.5229 -0.3083 -0.4068
  421TIP3   OH2 1261   0.161   0.698   0.233 -0.3923 -0.0163 -0.0410
  421TIP3    H1 1262   0.081   0.720   0.185 -0.2227  1.1019  0.1525
  421TIP3    H2 1263   0.215   0.777   0.226 -0.8685  0.7065  3.0417
  422TIP3   OH2 1264   0.099   1.312   1.157 -0.6353  0.1311 -0.3774
  422TIP3    H1 1265   0.140   1.328   1.071 -0.1907  0.7758 -0.0540
  422TIP3    H2 1266   0.134   1.227   1.184 -1.4918 -0.5265 -1.2353
  423TIP3   OH2 1267   2.357   0.391   1.206 -0.5952  0.4792  0.0820
  423TIP3    H1 1268   2.286   0.385   1.143 -1.0199  1.8315  0.3942
  423TIP3    H2 1269   2.364   0.303   1.243 -0.3381 -0.3426 -1.8097
  424TIP3   OH2 1270   1.135   1.368   1.793  0.1371  0.1451 -0.0656
  424TIP3    H1 1271   1.214   1.322   1.820  0.7032  1.0736 -0.1129
  424TIP3    H2 1272   1.133   1.446   1.848 -1.6994 -0.6986  1.2121
  425TIP3   OH2 1273   1.408   0.977   1.015  0.5312 -0.0048  0.0439
  425TIP3    H1 1274   1.407   1.059   0.966  2.6031  1.6908  2.5622
  425TIP3    H2 1275   1.317   0.966   1.044  0.1981  1.3512 -0.4010
  426TIP3   OH2 1276   0.288   0.687   1.401  0.2889 -0.0130 -0.0993
  426TIP3    H1 1277   0.231   0.735   1.342 -1.8523 -0.6114  1.3511
  426TIP3    H2 1278   0.328   0.619   1.346 -0.0085  0.7266 -1.2625
  427TIP3   OH2 1279   1.380   0.240   0.626  0.0470  0.2926 -0.6846
  427TIP3    H1 1280   1.401   0.297   0.551  2.8469 -0.3713 -0.5072
  427TIP3    H2 1281   1.436   0.164   0.615 -2.0685 -1.5226  0.2581
  428TIP3   OH2 1282   1.885   2.079   0.236 -0.6293 -0.3745  0.3930
  428TIP3    H1 1283   1.844   2.009   0.287 -0.3303 -0.1508  0.9507
  428TIP3    H2 1284   1.964   2.039   0.200 -1.2026 -0.7396 -0.4944
  429TIP3   OH2 1285   0.399   0.544   0.162 -0.2883 -0.1443 -0.1607
  429TIP3    H1 1286   0.389   0.478   0.231 -0.5401  0.1928  0.1300
  429TIP3    H2 1287   0.322   0.600   0.173  0.0514  0.3378 -0.2543
  430TIP3   OH2 1288   1.262   2.128   1.233  0.3023  0.3383  0.7489
  430TIP3    H1 1289   1.272   2.153   1.141  1.1680  0.8410  0.9635
  430TIP3    H2 1290   1.293   2.205   1.282  3.6127 -1.2752  1.4376
  431TIP3   OH2 1291   0.440   0.089   0.081 -0.3196  0.8287 -0.6594
  431TIP3    H1 1292   0.480   0.077  -0.006  0.4757 -1.5781 -0.0382
  431TIP3    H2 1293   0.514   0.106   0.139 -0.2241 -2.0224  0.2242
  432TIP3   OH2 1294   1.081   1.311   2.260  0.0866  0.8261  0.1961
  432TIP3    H1 1295   0.994   1.350   2.250 -0.6575 -0.7881  0.1667
  432TIP3    H2 1296   1.082   1.237   2.200 -0.4641 -2.3653  3.7719
  433TIP3   OH2 1297   0.227   1.651   1.064 -0.4091  0.0020 -0.2100
  433TIP3    H1 1298   0.278   1.572   1.083 -0.4687 -0.4279 -1.7253
  433TIP3    H2 1299   0.229   1.658   0.968 -0.7146  1.6363 -0.1145
  434TIP3   OH2 1300   1.290   0.888   0.424 -0.6245  0.3213 -0.3547
  434TIP3    H1 1301   1.381   0.910   0.407 -0.5998  0.0924 -0.5198
  434TIP3    H2 1302   1.240   0.962   0.389 -0.4413  1.0710  0.8949
  435TIP3   OH2 1303   1.723   1.980   2.443  0.2287 -0.1492 -0.2771
  435TIP3    H1 1304   1.744   1.888   2.459 -1.3164 -0.1735  2.0545
  435TIP3    H2 1305   1.633   1.990   2.473  0.4540  2.1895 -0.1937
  436TIP3   OH2 1306   1.935   2.329   0.345 -0.1949  0.1738  0.4639
  436TIP3    H1 1307   1.918   2.241   0.310  1.6613 -0.3961  0.8740
  436TIP3    H2 1308   1.942   2.385   0.267  1.6031 -0.6437 -0.0160
  437TIP3   OH2 1309   0.927   0.367   0.213 -0.3878  0.1368  0.6617
  437TIP3    H1 1310   0.969   0.432   0.157  1.7506 -0.9674  0.8586
  437TIP3    H2 1311   0.874   0.314   0.153  0.8147 -0.2100 -0.1233
  438TIP3   OH2 1312   2.256   1.606   1.162  0.2357 -0.1933  0.2766
  438TIP3    H1 1313   2.162   1.619   1.154  0.4496  0.7312 -1.0444
  438TIP3    H2 1314   2.293   1.651   1.086  1.4960 -3.7115 -1.4055
  439TIP3   OH2 1315   1.071   0.796   1.322 -0.9407 -0.1263  0.1091
  439TIP3    H1 1316   1.022   0.816   1.402 -1.1441 -0.6250  0.1102
  439TIP3    H2 1317   1.163   0.808   1.347 -0.9587 -0.9901  0.6281
  440TIP3   OH2 1318   0.954   2.451   2.040  0.0360 -0.4756 -0.4992
  440TIP3    H1 1319   1.004   2.453   1.959 -1.5935 -0.3021 -1.5573
  440TIP3    H2 1320   0.884   2.388   2.022 -1.0882  0.5080  0.3133
  441TIP3   OH2 1321   0.306   0.314   0.995  0.2442 -0.1012  0.0461
  441TIP3    H1 1322   0.246   0.385   1.018  1.7234  1.0636  0.4544
  441TIP3    H2 1323   0.354   0.347   0.919 -1.3601 -2.0548 -1.9328
  442TIP3   OH2 1324   1.988   2.466   0.092 -0.0151 -0.0539 -0.4971
  442TIP3    H1 1325   1.944   2.432   0.014 -0.5438 -0.6525  0.0510
  442TIP3    H2 1326   2.043   2.537   0.059 -1.3153  0.6474 -1.2323
  443TIP3   OH2 1327   1.932   1.886   1.301 -0.1777 -0.5278 -0.2460
  443TIP3    H1 1328   1.955   1.846   1.217  0.0912 -0.2937 -0.2882
  443TIP3    H2 1329   1.837   1.877   1.307 -0.1502 -0.9306 -0.3773
  444TIP3   OH2 1330   0.277   0.404   1.306  0.2202  0.7668  0.1666
  444TIP3    H1 1331   0.297   0.415   1.213 -0.8683  2.4728  0.0949
  444TIP3    H2 1332   0.362   0.393   1.348  0.7952  1.0164 -0.8935
  445TIP3   OH2 1333   1.555   2.468   0.311 -0.0414  0.0860  0.1090
  445TIP3    H1 1334   1.601   2.549   0.332  0.7267 -0.7396  1.7969
  445TIP3    H2 1335   1.621   2.412   0.270 -0.5827  0.2977 -1.1115
  446TIP3   OH2 1336   0.655   2.457   0.639  0.0025  0.2716  0.1846
  446TIP3    H1 1337   0.747   2.475   0.623  0.2436 -1.4280 -0.5940
  446TIP3    H2 1338   0.625   2.411   0.560 -1.1820 -0.2940  0.9193
  447TIP3   OH2 1339   1.419   0.721   2.268  0.2382  0.0056 -0.3332
  447TIP3    H1 1340   1.347   0.719   2.205  2.1477 -0.9308 -2.6494
  447TIP3    H2 1341   1.382   0.683   2.348 -2.6411  2.4223 -0.3582
  448TIP3   OH2 1342   0.146   2.005   1.837  0.2643 -0.0450  0.5539
  448TIP3    H1 1343   0.077   2.055   1.793 -0.5293 -0.0749  1.7175
  448TIP3    H2 1344   0.177   1.943   1.771 -1.5907 -0.7791  0.3179
  449TIP3   OH2 1345   0.781   1.097   0.088 -0.2949 -0.3399 -0.0430
  449TIP3    H1 1346   0.744   1.186   0.092 -0.2617 -0.3425  0.4005
  449TIP3    H2 1347   0.710   1.043   0.055 -0.0511 -0.0113 -1.1535
  450TIP3   OH2 1348   2.321   0.355   0.552 -0.1267 -0.1328 -0.1847
  450TIP3    H1 1349   2.319   0.307   0.470  0.8505  2.2013 -1.6580
  450TIP3    H2 1350   2.364   0.295   0.613  0.3134 -1.4278 -1.6973
  451TIP3   OH2 1351   0.184   0.971   0.111 -0.1771  0.1634 -0.0460
  451TIP3    H1 1352   0.166   1.054   0.153  1.5631  0.0349  1.0509
  451TIP3    H2 1353   0.124   0.967   0.037  0.4788  2.9200 -0.8201
  452TIP3   OH2 1354   1.982   2.193   1.244 -0.0703 -0.2501 -0.1359
  452TIP3    H1 1355   1.936   2.185   1.328  0.1931  0.2337  0.0556
  452TIP3    H2 1356   1.916   2.171   1.178 -0.6531  0.6888  0.1198
  453TIP3   OH2 1357   1.198   1.083   0.241 -0.3149 -0.1549 -0.0917
  453TIP3    H1 1358   1.277   1.138   0.248 -0.0322 -0.3714 -1.2642
  453TIP3    H2 1359   1.137   1.135   0.189 -0.1671 -0.7967 -0.9364
  454TIP3   OH2 1360   1.654   1.531   0.231  0.6183 -0.1587 -0.3615
  454TIP3    H1 1361   1.663   1.469   0.159  0.0275 -0.7774  0.0966
  454TIP3    H2 1362   1.580   1.587   0.206 -1.0603 -1.7728  0.7535
  455TIP3   OH2 1363   2.450   1.577   2.152  0.0916 -0.2799 -0.4082
  455TIP3    H1 1364   2.542   1.562   2.173 -0.2056 -0.9664  0.4534
  455TIP3    H2 1365   2.422   1.498   2.106  0.1713  0.3306 -1.5516
  456TIP3   OH2 1366   0.046   2.498   1.002  0.0553  0.5853  0.3060
  456TIP3    H1 1367   0.052   2.404   0.981  0.1009  0.8502 -0.9077
  456TIP3    H2 1368  -0.046   2.519   0.987  0.3449  1.0617 -0.9066
  457TIP3   OH2 1369   1.303   0.545   0.028 -0.2338 -0.5484  0.1781
  457TIP3    H1 1370   1.267   0.607   0.091 -0.1755 -1.8735  1.5702
  457TIP3    H2 1371   1.384   0.514   0.067 -0.7186 -2.1796 -0.0294
  458TIP3   OH2 1372   0.754   1.780   1.052 -0.5329 -0.3073  0.1770
  458TIP3    H1 1373   0.849   1.774   1.066 -0.5624 -1.0607  0.1030
  458TIP3    H2 1374   0.721   1.821   1.132 -0.4583 -2.7225  1.5672
  459TIP3   OH2 1375   1.969   1.586   1.203  0.0810 -0.2680  0.4324
  459TIP3    H1 1376   1.984   1.512   1.262  1.0639 -0.0799  0.4363
  459TIP3    H2 1377   1.874   1.593   1.197 -0.0733 -2.2756 -0.4858
  460TIP3   OH2 1378   2.154   0.228   2.094  0.3586 -0.0720  0.3339
  460TIP3    H1 1379   2.078   0.192   2.048  0.5221  2.7173 -2.5117
  460TIP3    H2 1380   2.201   0.152   2.128 -2.6871 -1.9801  0.5801
  461TIP3   OH2 1381   2.097   0.184   1.475 -0.2169 -0.1879  0.3332
  461TIP3    H1 1382   2.062   0.107   1.429  1.5096 -0.7542 -0.0999
  461TIP3    H2 1383   2.188   0.190   1.446  0.0124  1.3462  1.2642
  462TIP3   OH2 1384   0.875   2.121   1.001  0.1296  0.1508  0.5271
  462TIP3    H1 1385   0.784   2.130   1.029 -0.1753 -0.4521 -0.2535
  462TIP3    H2 1386   0.874   2.145   0.909  0.7566  0.0732  0.4977
  463TIP3   OH2 1387   2.158   0.351   1.027  0.2216 -1.0057  0.4603
  463TIP3    H1 1388   2.080   0.316   1.070 -1.0422  0.0785 -0.8354
  463TIP3    H2 1389   2.130   0.437   0.994  1.3329 -1.4406 -1.7910
  464TIP3   OH2 1390   2.445   1.980   2.130  0.3934 -0.2315 -0.2372
  464TIP3    H1 1391   2.434   2.062   2.179 -1.9390 -0.9707  0.6323
  464TIP3    H2 1392   2.437   2.005   2.038 -0.7410  0.4742  0.0388
  465TIP3   OH2 1393   0.896   0.373   1.488 -0.4747 -0.3412 -0.5345
  465TIP3    H1 1394   0.856   0.456   1.465 -0.3088 -0.5470 -1.6033
  465TIP3    H2 1395   0.961   0.357   1.419  0.5602 -0.6286  0.4564
  466TIP3   OH2 1396   2.070   1.364   0.358 -0.3699 -0.3918  0.1364
  466TIP3    H1 1397   2.010   1.294   0.335 -0.0181 -0.6184 -0.0913
  466TIP3    H2 1398   2.128   1.326   0.423  2.0691 -1.4427 -2.4650
  467TIP3   OH2 1399   0.935   0.883   0.950 -0.0435 -0.3775  0.5950
  467TIP3    H1 1400   0.931   0.796   0.991  1.5279 -0.4209  0.7442
  467TIP3    H2 1401   0.980   0.868   0.867  1.1481  0.3992  1.0582
  468TIP3   OH2 1402   2.343   1.019   2.144 -0.3168 -0.2432 -0.2018
  468TIP3    H1 1403   2.351   0.977   2.058  0.9108  2.9101 -1.7704
  468TIP3    H2 1404   2.253   1.050   2.148 -0.2433  0.0098 -0.5435
  469TIP3   OH2 1405   1.642   2.385   1.050 -0.1333 -0.4886 -0.0694
  469TIP3    H1 1406   1.619   2.429   1.132  0.0684  1.1323 -0.8418
  469TIP3    H2 1407   1.558   2.375   1.004  0.0327  0.7541 -0.6688
  470TIP3   OH2 1408   0.730   1.101   1.030  0.4307  0.2555 -0.5801
  470TIP3    H1 1409   0.786   1.037   0.985 -1.3976 -0.7030 -1.6367
  470TIP3    H2 1410   0.764   1.104   1.119  1.0587 -1.6414 -0.7038
  471TIP3   OH2 1411   0.575   2.222   1.060 -0.3641  0.5673  0.0205
  471TIP3    H1 1412   0.570   2.270   0.977 -1.5916  0.5161  0.0484
  471TIP3    H2 1413   0.491   2.175   1.065 -0.7991  1.4470  1.8290
  472TIP3   OH2 1414   1.153   0.661   2.076  0.5073  0.2364 -0.4859
  472TIP3    H1 1415   1.110   0.737   2.114 -0.4840 -1.0493  1.0568
  472TIP3    H2 1416   1.101   0.640   1.999  1.6832  1.9818 -1.8376
  473TIP3   OH2 1417   0.667   0.569   0.236  0.4513  0.2942  0.3559
  473TIP3    H1 1418   0.671   0.595   0.328 -0.7352 -2.1504  1.1887
  473TIP3    H2 1419   0.583   0.524   0.227 -0.5995  2.4955 -2.5820
  474TIP3   OH2 1420   1.224   2.369   1.347 -0.1163 -0.0365  0.1522
  474TIP3    H1 1421   1.285   2.419   1.402 -0.6562  0.4311  0.3383
  474TIP3    H2 1422   1.163   2.328   1.410 -2.1033  2.2676 -0.1262
  475TIP3   OH2 1423   1.658   0.668   1.743 -0.1112  0.2744 -0.6581
  475TIP3    H1 1424   1.565   0.678   1.766 -0.1149 -0.1863 -0.4632
  475TIP3    H2 1425   1.697   0.626   1.819  0.5932  1.9075 -0.0738
  476TIP3   OH2 1426   1.328   2.146   0.971  0.0961 -0.2931 -0.3013
  476TIP3    H1 1427   1.390   2.109   0.907 -0.4303 -0.6720 -0.5958
  476TIP3    H2 1428   1.334   2.240   0.958  0.8793 -0.3030 -0.0773
  477TIP3   OH2 1429   0.273   2.418   2.258  0.2156 -0.5730 -0.2873
  477TIP3    H1 1430   0.197   2.412   2.200  0.4939 -0.6176 -0.6513
  477TIP3    H2 1431   0.298   2.327   2.273  0.0432 -0.5699  0.0456
  478TIP3   OH2 1432   1.045   1.108   0.856  0.5494 -0.3139  0.7933
  478TIP3    H1 1433   1.140   1.118   0.851  0.6065  2.0298  4.0684
  478TIP3    H2 1434   1.032   1.034   0.914  0.3280 -0.6644  0.3075
  479TIP3   OH2 1435   2.043   0.879   0.430  0.0320 -0.0265 -0.3163
  479TIP3    H1 1436   1.958   0.860   0.390  0.9000 -0.4173 -2.0892
  479TIP3    H2 1437   2.095   0.800   0.413  1.2360  0.8250 -0.7097
  480TIP3   OH2 1438   1.686   1.817   1.225 -0.0012  0.0333  0.1558
  480TIP3    H1 1439   1.691   1.722   1.223  1.2110  0.0712 -2.2962
  480TIP3    H2 1440   1.596   1.836   1.251  0.0386 -1.7141  1.7688
  481TIP3   OH2 1441   1.808   0.288   1.454  0.1971 -0.2176 -0.0721
  481TIP3    H1 1442   1.866   0.260   1.525  2.1275  0.6755 -1.2095
  481TIP3    H2 1443   1.723   0.301   1.496  0.7600 -1.6791  1.6529
  482TIP3   OH2 1444   1.826   0.837   1.584  0.6153 -0.4643  0.0401
  482TIP3    H1 1445   1.805   0.831   1.491  0.5803  0.6881 -0.0450
  482TIP3    H2 1446   1.759   0.784   1.627 -0.0696 -0.0660 -0.5118
  483TIP3   OH2 1447   0.426   0.745   2.379  0.3789 -0.0581 -0.0021
  483TIP3    H1 1448   0.357   0.776   2.320 -0.9598  0.9156  1.9503
  483TIP3    H2 1449   0.403   0.654   2.397  0.2295 -0.0612 -0.1920
  484TIP3   OH2 1450   1.008   0.409   0.877  0.1579  0.2085  0.3864
  484TIP3    H1 1451   0.947   0.365   0.936 -0.1676 -0.5496 -0.4967
  484TIP3    H2 1452   0.989   0.372   0.791 -0.6069  2.5488 -0.5427
  485TIP3   OH2 1453   0.222   1.063   1.244 -0.0950  0.0790  0.0422
  485TIP3    H1 1454   0.192   0.973   1.260 -1.5624  0.5222 -0.1017
  485TIP3    H2 1455   0.225   1.103   1.331  1.3481 -0.3136  0.2044
  486TIP3   OH2 1456   1.970   2.397   1.633  0.0164 -0.5834  0.3861
  486TIP3    H1 1457   2.048   2.416   1.685 -0.4651  1.9575  0.3117
  486TIP3    H2 1458   1.901   2.449   1.674 -1.2247 -1.3217 -0.6870
  487TIP3   OH2 1459   2.237   0.590   0.881 -0.3350 -0.0227 -0.0814
  487TIP3    H1 1460   2.330   0.589   0.858  0.9161 -1.7575  4.1898
  487TIP3    H2 1461   2.209   0.680   0.862  1.6511  0.1112 -3.0186
  488TIP3   OH2 1462   2.392   0.352   2.443 -0.2346  0.6107  0.5832
  488TIP3    H1 1463   2.418   0.261   2.459 -2.5380  0.0349  1.5500
  488TIP3    H2 1464   2.436   0.376   2.361 -1.6209 -2.3149 -1.1943
  489TIP3   OH2 1465   0.914   0.696   0.284 -0.1065 -0.2946 -0.3823
  489TIP3    H1 1466   0.851   0.769   0.287  2.0470  1.6682  0.6656
  489TIP3    H2 1467   0.878   0.636   0.219 -2.6731  1.0444 -0.3438
  490TIP3   OH2 1468   1.795   1.733   2.414 -0.1961 -0.0891  0.8072
  490TIP3    H1 1469   1.831   1.650   2.445 -0.1666 -0.6127 -0.5643
  490TIP3    H2 1470   1.852   1.758   2.342  0.7462  1.9462  2.1517
  491TIP3   OH2 1471   2.224   1.117   1.720  0.3871  0.1655  0.4146
  491TIP3    H1 1472   2.282   1.045   1.745  0.0986  0.4571  2.1069
  491TIP3    H2 1473   2.136   1.079   1.725  0.2139  0.6548  1.5779
  492TIP3   OH2 1474   2.048   0.660   2.137 -0.1417  0.0490 -0.4930
  492TIP3    H1 1475   2.048   0.597   2.209 -2.2213 -0.6152 -0.9844
  492TIP3    H2 1476   2.116   0.629   2.077  0.0010 -0.7701  0.0713
  493TIP3   OH2 1477   0.691   0.704   1.746  0.6988 -0.2278 -0.1710
  493TIP3    H1 1478   0.748   0.659   1.809  0.6338 -0.2089 -0.0977
  493TIP3    H2 1479   0.700   0.797   1.768  0.8411 -0.2044 -0.3285
  494TIP3   OH2 1480   1.809   2.211   1.914 -0.2150 -0.2054 -0.4417
  494TIP3    H1 1481   1.898   2.181   1.932 -0.2199 -0.3260 -0.6187
  494TIP3    H2 1482   1.812   2.245   1.825 -0.0188  1.0584  0.0268
  495TIP3   OH2 1483   2.291   0.863   0.832  0.1398 -0.0556 -0.0667
  495TIP3    H1 1484   2.345   0.842   0.756  0.1844 -3.0009  0.6390
  495TIP3    H2 1485   2.201   0.853   0.802  0.1613 -2.5547  0.4684
  496TIP3   OH2 1486   1.732   0.008   1.784  0.0841 -0.4411 -0.4383
  496TIP3    H1 1487   1.697  -0.034   1.862  1.1085  0.6437  0.6668
  496TIP3    H2 1488   1.660   0.060   1.750  0.0802  0.4544  0.8328
  497TIP3   OH2 1489   2.361   0.149   1.378 -0.2208 -0.0798 -0.6356
  497TIP3    H1 1490   2.455   0.161   1.387 -0.4269  3.4048 -1.5215
  497TIP3    H2 1491   2.351   0.072   1.323  1.9845 -1.5016  0.7846
  498TIP3   OH2 1492   1.255   1.886   1.020 -0.3105  0.3975  0.0040
  498TIP3    H1 1493   1.312   1.834   1.077  0.4676 -0.7919 -1.7739
  498TIP3    H2 1494   1.283   1.976   1.034 -0.3577  0.1869  1.6977
  499TIP3   OH2 1495   2.168   2.006   1.158 -0.0396  0.0886  0.1655
  499TIP3    H1 1496   2.117   2.066   1.213 -0.4729 -0.5947  0.5316
  499TIP3    H2 1497   2.102   1.961   1.104 -0.0015 -1.6716  1.4864
  500TIP3   OH2 1498   2.247   0.013   2.218 -0.0762  0.0145 -1.1951
  500TIP3    H1 1499   2.320   0.056   2.262 -0.1085  0.5204 -1.6234
  500TIP3    H2 1500   2.216  -0.053   2.280  0.0149  0.5647 -0.5603
  501TIP3   OH2 1501   2.132   0.400   2.331 -0.5349  0.6526 -0.1657
  501TIP3    H1 1502   2.214   0.372   2.371 -0.4086  0.4328 -0.5691
  501TIP3    H2 1503   2.131   0.356   2.246 -1.2375  0.3602 -0.0168
  502TIP3   OH2 1504   1.111   1.638   1.147 -0.2929 -0.1048 -0.1998
  502TIP3    H1 1505   1.061   1.717   1.169 -0.2064  0.2086 -1.1020
  502TIP3    H2 1506   1.200   1.657   1.178  0.0655  0.7400 -1.6264
  503TIP3   OH2 1507   1.465   0.608   0.526  0.0853  0.6981  0.3413
  503TIP3    H1 1508   1.548   0.655   0.522  0.8858 -0.5520  1.3474
  503TIP3    H2 1509   1.440   0.613   0.618 -0.8337  0.8168  0.0965
  504TIP3   OH2 1510   2.318   1.027   0.180  0.2006  0.0678 -0.0507
  504TIP3    H1 1511   2.391   1.080   0.146  0.7612  0.7457  2.0540
  504TIP3    H2 1512   2.344   0.937   0.163  1.2679  0.3269  0.1397
  505TIP3   OH2 1513   0.359   1.788   0.199 -0.4862 -0.2167  0.3107
  505TIP3    H1 1514   0.370   1.729   0.124  0.8563  0.4701 -0.0736
  505TIP3    H2 1515   0.354   1.731   0.275  1.7427 -0.8385  0.0559
  506TIP3   OH2 1516   0.011   2.203   1.425 -0.2852 -0.2288 -0.0589
  506TIP3    H1 1517  -0.033   2.121   1.403 -1.0720  0.0925  0.2806
  506TIP3    H2 1518   0.087   2.205   1.367  0.4670 -1.8074  0.7979
  507TIP3   OH2 1519   2.108   0.450   0.678  0.8297  0.4165  0.5429
  507TIP3    H1 1520   2.178   0.416   0.624 -0.0138 -2.1551  0.9191
  507TIP3    H2 1521   2.152   0.492   0.752  1.9932 -1.0940  0.7409
  508TIP3   OH2 1522   0.625   1.922   1.673 -0.1687 -0.2939 -0.5379
  508TIP3    H1 1523   0.597   2.001   1.626  0.1857 -1.0116 -2.0156
  508TIP3    H2 1524   0.691   1.953   1.736 -1.0146  0.7621 -0.1365
  509TIP3   OH2 1525   2.203   2.307   2.421 -0.7914 -0.5513 -0.3433
  509TIP3    H1 1526   2.262   2.322   2.495 -2.3484  2.7044  0.4292
  509TIP3    H2 1527   2.129   2.260   2.459 -0.7912 -0.4431 -0.2051
  510TIP3   OH2 1528   1.095   1.118   2.053  0.4824 -0.1862 -0.3611
  510TIP3    H1 1529   1.083   1.125   1.958  3.7019  0.9176 -0.8161
  510TIP3    H2 1530   1.049   1.037   2.077  1.3514 -1.6726 -3.2388
  511TIP3   OH2 1531   0.056   2.156   0.046  0.0941 -0.3220  0.1801
  511TIP3    H1 1532   0.001   2.219   0.092  0.0806 -0.3087  0.1460
  511TIP3    H2 1533   0.137   2.154   0.097 -0.4524 -1.3902  1.0545
  512TIP3   OH2 1534   1.093   1.957   2.160 -0.3307  0.2372  0.0587
  512TIP3    H1 1535   1.086   1.962   2.065 -1.6067  2.9948  0.1804
  512TIP3    H2 1536   1.061   1.870   2.182  2.4687 -1.5142 -2.1088
   2.48706   2.48706   2.48706
